n -t * -s 0  -x 0 -y 200 -Z 100 -z 30  -v circle -c black
n -t * -s 1  -x 350 -y 200 -Z 100 -z 30  -v circle -c black
n -t * -s 2  -x 700 -y 200 -Z 100 -z 30  -v circle -c black
n -t * -s 3  -x 350 -y 100 -Z 100 -z 30  -v circle -c black
V -t * -v 1.0a5 -a 0
W -t * -x 1000 -y 1000
A -t * -n 1 -p 0 -o 0x7fffffff -c 30 -a 1
A -t * -h 1 -m 1073741823 -s 0
+ -t 1.000000000 -s 0 -d -1 -p cbr -e 512 -c 2 -a 0 -i 0 -k AGT 
- -t 1.000000000 -s 0 -d -1 -p cbr -e 512 -c 2 -a 0 -i 0 -k AGT
h -t 1.000000000 -s 0 -d -1 -p cbr -e 512 -c 2 -a 0 -i 0 -k AGT
+ -t 1.000000000 -s 3 -d -1 -p cbr -e 512 -c 2 -a 0 -i 1 -k AGT 
- -t 1.000000000 -s 3 -d -1 -p cbr -e 512 -c 2 -a 0 -i 1 -k AGT
h -t 1.000000000 -s 3 -d -1 -p cbr -e 512 -c 2 -a 0 -i 1 -k AGT
+ -t 1.000000000 -s 0 -d -1 -p AODV -e 48 -c 2 -a 0 -i 0 -k RTR 
- -t 1.000000000 -s 0 -d -1 -p AODV -e 48 -c 2 -a 0 -i 0 -k RTR
h -t 1.000000000 -s 0 -d -1 -p AODV -e 48 -c 2 -a 0 -i 0 -k RTR
+ -t 1.000000000 -s 3 -d -1 -p AODV -e 48 -c 2 -a 0 -i 0 -k RTR 
- -t 1.000000000 -s 3 -d -1 -p AODV -e 48 -c 2 -a 0 -i 0 -k RTR
h -t 1.000000000 -s 3 -d -1 -p AODV -e 48 -c 2 -a 0 -i 0 -k RTR
+ -t 1.000115000 -s 3 -d -1 -p AODV -e 106 -c 2 -a 0 -i 0 -k MAC 
- -t 1.000115000 -s 3 -d -1 -p AODV -e 106 -c 2 -a 0 -i 0 -k MAC
h -t 1.000115000 -s 3 -d -1 -p AODV -e 106 -c 2 -a 0 -i 0 -k MAC
r -t 1.000963333 -s 1 -d -1 -p AODV -e 48 -c 2 -a 0 -i 0 -k MAC
r -t 1.000964213 -s 0 -d -1 -p AODV -e 48 -c 2 -a 0 -i 0 -k MAC
r -t 1.000964213 -s 2 -d -1 -p AODV -e 48 -c 2 -a 0 -i 0 -k MAC
r -t 1.000988333 -s 1 -d -1 -p AODV -e 48 -c 2 -a 0 -i 0 -k RTR
+ -t 1.000988333 -s 1 -d 3 -p AODV -e 44 -c 2 -a 0 -i 0 -k RTR 
- -t 1.000988333 -s 1 -d 3 -p AODV -e 44 -c 2 -a 0 -i 0 -k RTR
h -t 1.000988333 -s 1 -d 3 -p AODV -e 44 -c 2 -a 0 -i 0 -k RTR
r -t 1.000989213 -s 0 -d -1 -p AODV -e 48 -c 2 -a 0 -i 0 -k RTR
r -t 1.000989213 -s 2 -d -1 -p AODV -e 48 -c 2 -a 0 -i 0 -k RTR
+ -t 1.001043333 -s 1 -d -1 -p ARP -e 86 -c 2 -a 0 -i 0 -k MAC 
- -t 1.001043333 -s 1 -d -1 -p ARP -e 86 -c 2 -a 0 -i 0 -k MAC
h -t 1.001043333 -s 1 -d -1 -p ARP -e 86 -c 2 -a 0 -i 0 -k MAC
r -t 1.001731667 -s 3 -d -1 -p ARP -e 28 -c 2 -a 0 -i 0 -k MAC
r -t 1.001732500 -s 0 -d -1 -p ARP -e 28 -c 2 -a 0 -i 0 -k MAC
r -t 1.001732500 -s 2 -d -1 -p ARP -e 28 -c 2 -a 0 -i 0 -k MAC
+ -t 1.001870440 -s 0 -d -1 -p AODV -e 48 -c 2 -a 0 -i 0 -k RTR 
- -t 1.001870440 -s 0 -d -1 -p AODV -e 48 -c 2 -a 0 -i 0 -k RTR
h -t 1.001870440 -s 0 -d -1 -p AODV -e 48 -c 2 -a 0 -i 0 -k RTR
+ -t 1.002182500 -s 0 -d -1 -p AODV -e 106 -c 2 -a 0 -i 0 -k MAC 
- -t 1.002182500 -s 0 -d -1 -p AODV -e 106 -c 2 -a 0 -i 0 -k MAC
h -t 1.002182500 -s 0 -d -1 -p AODV -e 106 -c 2 -a 0 -i 0 -k MAC
r -t 1.003031667 -s 1 -d -1 -p AODV -e 48 -c 2 -a 0 -i 0 -k MAC
r -t 1.003031713 -s 3 -d -1 -p AODV -e 48 -c 2 -a 0 -i 0 -k MAC
r -t 1.003056667 -s 1 -d -1 -p AODV -e 48 -c 2 -a 0 -i 0 -k RTR
r -t 1.003056713 -s 3 -d -1 -p AODV -e 48 -c 2 -a 0 -i 0 -k RTR
+ -t 1.003221713 -s 3 -d -1 -p RTS -e 44 -c 2 -a 0 -i 0 -k MAC 
- -t 1.003221713 -s 3 -d -1 -p RTS -e 44 -c 2 -a 0 -i 0 -k MAC
h -t 1.003221713 -s 3 -d -1 -p RTS -e 44 -c 2 -a 0 -i 0 -k MAC
r -t 1.003574047 -s 1 -d -1 -p RTS -e 44 -c 2 -a 0 -i 0 -k MAC
+ -t 1.003584047 -s 1 -d -1 -p CTS -e 38 -c 2 -a 0 -i 0 -k MAC 
- -t 1.003584047 -s 1 -d -1 -p CTS -e 38 -c 2 -a 0 -i 0 -k MAC
h -t 1.003584047 -s 1 -d -1 -p CTS -e 38 -c 2 -a 0 -i 0 -k MAC
r -t 1.003888380 -s 3 -d -1 -p CTS -e 38 -c 2 -a 0 -i 0 -k MAC
+ -t 1.003898380 -s 3 -d -1 -p ARP -e 86 -c 2 -a 0 -i 0 -k MAC 
- -t 1.003898380 -s 3 -d -1 -p ARP -e 86 -c 2 -a 0 -i 0 -k MAC
h -t 1.003898380 -s 3 -d -1 -p ARP -e 86 -c 2 -a 0 -i 0 -k MAC
r -t 1.004586713 -s 1 -d -1 -p ARP -e 28 -c 2 -a 0 -i 0 -k MAC
+ -t 1.004596713 -s 1 -d -1 -p ACK -e 38 -c 2 -a 0 -i 0 -k MAC 
- -t 1.004596713 -s 1 -d -1 -p ACK -e 38 -c 2 -a 0 -i 0 -k MAC
h -t 1.004596713 -s 1 -d -1 -p ACK -e 38 -c 2 -a 0 -i 0 -k MAC
r -t 1.004901047 -s 3 -d -1 -p ACK -e 38 -c 2 -a 0 -i 0 -k MAC
+ -t 1.005011880 -s 0 -d -1 -p AODV -e 106 -c 2 -a 0 -i 0 -k MAC 
- -t 1.005011880 -s 0 -d -1 -p AODV -e 106 -c 2 -a 0 -i 0 -k MAC
h -t 1.005011880 -s 0 -d -1 -p AODV -e 106 -c 2 -a 0 -i 0 -k MAC
+ -t 1.005400947 -s 2 -d -1 -p AODV -e 48 -c 2 -a 0 -i 0 -k RTR 
- -t 1.005400947 -s 2 -d -1 -p AODV -e 48 -c 2 -a 0 -i 0 -k RTR
h -t 1.005400947 -s 2 -d -1 -p AODV -e 48 -c 2 -a 0 -i 0 -k RTR
+ -t 1.005402684 -s 1 -d -1 -p AODV -e 48 -c 2 -a 0 -i 0 -k RTR 
- -t 1.005402684 -s 1 -d -1 -p AODV -e 48 -c 2 -a 0 -i 0 -k RTR
h -t 1.005402684 -s 1 -d -1 -p AODV -e 48 -c 2 -a 0 -i 0 -k RTR
+ -t 1.005515947 -s 2 -d -1 -p AODV -e 106 -c 2 -a 0 -i 0 -k MAC 
- -t 1.005515947 -s 2 -d -1 -p AODV -e 106 -c 2 -a 0 -i 0 -k MAC
h -t 1.005515947 -s 2 -d -1 -p AODV -e 106 -c 2 -a 0 -i 0 -k MAC
d -t 1.005517114 -s 1 -d -1 -p AODV -e 106 -c 2 -a 0 -i 0 -k MAC
d -t 1.005517161 -s 3 -d -1 -p AODV -e 106 -c 2 -a 0 -i 0 -k MAC
d -t 1.006365114 -s 1 -d -1 -p AODV -e 106 -c 2 -a 0 -i 0 -k MAC
d -t 1.006365161 -s 3 -d -1 -p AODV -e 106 -c 2 -a 0 -i 0 -k MAC
+ -t 1.006979114 -s 1 -d -1 -p RTS -e 44 -c 2 -a 0 -i 0 -k MAC 
- -t 1.006979114 -s 1 -d -1 -p RTS -e 44 -c 2 -a 0 -i 0 -k MAC
h -t 1.006979114 -s 1 -d -1 -p RTS -e 44 -c 2 -a 0 -i 0 -k MAC
r -t 1.007331447 -s 3 -d -1 -p RTS -e 44 -c 2 -a 0 -i 0 -k MAC
+ -t 1.007341447 -s 3 -d -1 -p CTS -e 38 -c 2 -a 0 -i 0 -k MAC 
- -t 1.007341447 -s 3 -d -1 -p CTS -e 38 -c 2 -a 0 -i 0 -k MAC
h -t 1.007341447 -s 3 -d -1 -p CTS -e 38 -c 2 -a 0 -i 0 -k MAC
r -t 1.007645781 -s 1 -d -1 -p CTS -e 38 -c 2 -a 0 -i 0 -k MAC
+ -t 1.007655781 -s 1 -d 3 -p AODV -e 102 -c 2 -a 0 -i 0 -k MAC 
- -t 1.007655781 -s 1 -d 3 -p AODV -e 102 -c 2 -a 0 -i 0 -k MAC
h -t 1.007655781 -s 1 -d 3 -p AODV -e 102 -c 2 -a 0 -i 0 -k MAC
r -t 1.008472114 -s 3 -d 3 -p AODV -e 44 -c 2 -a 0 -i 0 -k MAC
+ -t 1.008482114 -s 3 -d -1 -p ACK -e 38 -c 2 -a 0 -i 0 -k MAC 
- -t 1.008482114 -s 3 -d -1 -p ACK -e 38 -c 2 -a 0 -i 0 -k MAC
h -t 1.008482114 -s 3 -d -1 -p ACK -e 38 -c 2 -a 0 -i 0 -k MAC
+ -t 1.008497114 -s 3 -d 1 -p cbr -e 532 -c 2 -a 0 -i 1 -k RTR 
- -t 1.008497114 -s 3 -d 1 -p cbr -e 532 -c 2 -a 0 -i 1 -k RTR
h -t 1.008497114 -s 3 -d 1 -p cbr -e 532 -c 2 -a 0 -i 1 -k RTR
r -t 1.008786447 -s 1 -d -1 -p ACK -e 38 -c 2 -a 0 -i 0 -k MAC
+ -t 1.009076447 -s 1 -d -1 -p AODV -e 106 -c 2 -a 0 -i 0 -k MAC 
- -t 1.009076447 -s 1 -d -1 -p AODV -e 106 -c 2 -a 0 -i 0 -k MAC
h -t 1.009076447 -s 1 -d -1 -p AODV -e 106 -c 2 -a 0 -i 0 -k MAC
+ -t 1.009445365 -s 3 -d -1 -p AODV -e 48 -c 2 -a 0 -i 0 -k RTR 
- -t 1.009445365 -s 3 -d -1 -p AODV -e 48 -c 2 -a 0 -i 0 -k RTR
h -t 1.009445365 -s 3 -d -1 -p AODV -e 48 -c 2 -a 0 -i 0 -k RTR
r -t 1.009924781 -s 3 -d -1 -p AODV -e 48 -c 2 -a 0 -i 0 -k MAC
r -t 1.009925614 -s 0 -d -1 -p AODV -e 48 -c 2 -a 0 -i 0 -k MAC
r -t 1.009925614 -s 2 -d -1 -p AODV -e 48 -c 2 -a 0 -i 0 -k MAC
r -t 1.009949781 -s 3 -d -1 -p AODV -e 48 -c 2 -a 0 -i 0 -k RTR
r -t 1.009950614 -s 0 -d -1 -p AODV -e 48 -c 2 -a 0 -i 0 -k RTR
r -t 1.009950614 -s 2 -d -1 -p AODV -e 48 -c 2 -a 0 -i 0 -k RTR
+ -t 1.009950614 -s 2 -d 1 -p AODV -e 44 -c 2 -a 0 -i 0 -k RTR 
- -t 1.009950614 -s 2 -d 1 -p AODV -e 44 -c 2 -a 0 -i 0 -k RTR
h -t 1.009950614 -s 2 -d 1 -p AODV -e 44 -c 2 -a 0 -i 0 -k RTR
+ -t 1.010094781 -s 3 -d -1 -p RTS -e 44 -c 2 -a 0 -i 0 -k MAC 
- -t 1.010094781 -s 3 -d -1 -p RTS -e 44 -c 2 -a 0 -i 0 -k MAC
h -t 1.010094781 -s 3 -d -1 -p RTS -e 44 -c 2 -a 0 -i 0 -k MAC
r -t 1.010447114 -s 1 -d -1 -p RTS -e 44 -c 2 -a 0 -i 0 -k MAC
+ -t 1.010457114 -s 1 -d -1 -p CTS -e 38 -c 2 -a 0 -i 0 -k MAC 
- -t 1.010457114 -s 1 -d -1 -p CTS -e 38 -c 2 -a 0 -i 0 -k MAC
h -t 1.010457114 -s 1 -d -1 -p CTS -e 38 -c 2 -a 0 -i 0 -k MAC
r -t 1.010761447 -s 3 -d -1 -p CTS -e 38 -c 2 -a 0 -i 0 -k MAC
+ -t 1.010771447 -s 3 -d 1 -p cbr -e 590 -c 2 -a 0 -i 1 -k MAC 
- -t 1.010771447 -s 3 -d 1 -p cbr -e 590 -c 2 -a 0 -i 1 -k MAC
h -t 1.010771447 -s 3 -d 1 -p cbr -e 590 -c 2 -a 0 -i 1 -k MAC
r -t 1.015491781 -s 1 -d 1 -p cbr -e 532 -c 2 -a 0 -i 1 -k MAC
+ -t 1.015501781 -s 1 -d -1 -p ACK -e 38 -c 2 -a 0 -i 0 -k MAC 
- -t 1.015501781 -s 1 -d -1 -p ACK -e 38 -c 2 -a 0 -i 0 -k MAC
h -t 1.015501781 -s 1 -d -1 -p ACK -e 38 -c 2 -a 0 -i 0 -k MAC
r -t 1.015516781 -s 1 -d 1 -p cbr -e 532 -c 2 -a 0 -i 1 -k AGT
r -t 1.015806114 -s 3 -d -1 -p ACK -e 38 -c 2 -a 0 -i 0 -k MAC
+ -t 1.016196114 -s 3 -d -1 -p AODV -e 106 -c 2 -a 0 -i 0 -k MAC 
- -t 1.016196114 -s 3 -d -1 -p AODV -e 106 -c 2 -a 0 -i 0 -k MAC
h -t 1.016196114 -s 3 -d -1 -p AODV -e 106 -c 2 -a 0 -i 0 -k MAC
r -t 1.017044447 -s 1 -d -1 -p AODV -e 48 -c 2 -a 0 -i 0 -k MAC
r -t 1.017045327 -s 0 -d -1 -p AODV -e 48 -c 2 -a 0 -i 0 -k MAC
r -t 1.017045327 -s 2 -d -1 -p AODV -e 48 -c 2 -a 0 -i 0 -k MAC
r -t 1.017069447 -s 1 -d -1 -p AODV -e 48 -c 2 -a 0 -i 0 -k RTR
r -t 1.017070327 -s 0 -d -1 -p AODV -e 48 -c 2 -a 0 -i 0 -k RTR
r -t 1.017070327 -s 2 -d -1 -p AODV -e 48 -c 2 -a 0 -i 0 -k RTR
+ -t 1.017175327 -s 2 -d -1 -p RTS -e 44 -c 2 -a 0 -i 0 -k MAC 
- -t 1.017175327 -s 2 -d -1 -p RTS -e 44 -c 2 -a 0 -i 0 -k MAC
h -t 1.017175327 -s 2 -d -1 -p RTS -e 44 -c 2 -a 0 -i 0 -k MAC
r -t 1.017528494 -s 1 -d -1 -p RTS -e 44 -c 2 -a 0 -i 0 -k MAC
+ -t 1.017538494 -s 1 -d -1 -p CTS -e 38 -c 2 -a 0 -i 0 -k MAC 
- -t 1.017538494 -s 1 -d -1 -p CTS -e 38 -c 2 -a 0 -i 0 -k MAC
h -t 1.017538494 -s 1 -d -1 -p CTS -e 38 -c 2 -a 0 -i 0 -k MAC
r -t 1.017843661 -s 2 -d -1 -p CTS -e 38 -c 2 -a 0 -i 0 -k MAC
+ -t 1.017853661 -s 2 -d 1 -p AODV -e 102 -c 2 -a 0 -i 0 -k MAC 
- -t 1.017853661 -s 2 -d 1 -p AODV -e 102 -c 2 -a 0 -i 0 -k MAC
h -t 1.017853661 -s 2 -d 1 -p AODV -e 102 -c 2 -a 0 -i 0 -k MAC
r -t 1.018670827 -s 1 -d 1 -p AODV -e 44 -c 2 -a 0 -i 0 -k MAC
+ -t 1.018680827 -s 1 -d -1 -p ACK -e 38 -c 2 -a 0 -i 0 -k MAC 
- -t 1.018680827 -s 1 -d -1 -p ACK -e 38 -c 2 -a 0 -i 0 -k MAC
h -t 1.018680827 -s 1 -d -1 -p ACK -e 38 -c 2 -a 0 -i 0 -k MAC
+ -t 1.018695827 -s 1 -d 0 -p AODV -e 44 -c 2 -a 0 -i 0 -k RTR 
- -t 1.018695827 -s 1 -d 0 -p AODV -e 44 -c 2 -a 0 -i 0 -k RTR
h -t 1.018695827 -s 1 -d 0 -p AODV -e 44 -c 2 -a 0 -i 0 -k RTR
r -t 1.018985994 -s 2 -d -1 -p ACK -e 38 -c 2 -a 0 -i 0 -k MAC
+ -t 1.019234827 -s 1 -d -1 -p ARP -e 86 -c 2 -a 0 -i 0 -k MAC 
- -t 1.019234827 -s 1 -d -1 -p ARP -e 86 -c 2 -a 0 -i 0 -k MAC
h -t 1.019234827 -s 1 -d -1 -p ARP -e 86 -c 2 -a 0 -i 0 -k MAC
r -t 1.019923161 -s 3 -d -1 -p ARP -e 28 -c 2 -a 0 -i 0 -k MAC
r -t 1.019923994 -s 0 -d -1 -p ARP -e 28 -c 2 -a 0 -i 0 -k MAC
r -t 1.019923994 -s 2 -d -1 -p ARP -e 28 -c 2 -a 0 -i 0 -k MAC
+ -t 1.020218994 -s 0 -d -1 -p RTS -e 44 -c 2 -a 0 -i 0 -k MAC 
- -t 1.020218994 -s 0 -d -1 -p RTS -e 44 -c 2 -a 0 -i 0 -k MAC
h -t 1.020218994 -s 0 -d -1 -p RTS -e 44 -c 2 -a 0 -i 0 -k MAC
r -t 1.020572161 -s 1 -d -1 -p RTS -e 44 -c 2 -a 0 -i 0 -k MAC
+ -t 1.020582161 -s 1 -d -1 -p CTS -e 38 -c 2 -a 0 -i 0 -k MAC 
- -t 1.020582161 -s 1 -d -1 -p CTS -e 38 -c 2 -a 0 -i 0 -k MAC
h -t 1.020582161 -s 1 -d -1 -p CTS -e 38 -c 2 -a 0 -i 0 -k MAC
r -t 1.020887327 -s 0 -d -1 -p CTS -e 38 -c 2 -a 0 -i 0 -k MAC
+ -t 1.020897327 -s 0 -d -1 -p ARP -e 86 -c 2 -a 0 -i 0 -k MAC 
- -t 1.020897327 -s 0 -d -1 -p ARP -e 86 -c 2 -a 0 -i 0 -k MAC
h -t 1.020897327 -s 0 -d -1 -p ARP -e 86 -c 2 -a 0 -i 0 -k MAC
r -t 1.021586494 -s 1 -d -1 -p ARP -e 28 -c 2 -a 0 -i 0 -k MAC
+ -t 1.021596494 -s 1 -d -1 -p ACK -e 38 -c 2 -a 0 -i 0 -k MAC 
- -t 1.021596494 -s 1 -d -1 -p ACK -e 38 -c 2 -a 0 -i 0 -k MAC
h -t 1.021596494 -s 1 -d -1 -p ACK -e 38 -c 2 -a 0 -i 0 -k MAC
r -t 1.021901661 -s 0 -d -1 -p ACK -e 38 -c 2 -a 0 -i 0 -k MAC
+ -t 1.022390494 -s 1 -d -1 -p RTS -e 44 -c 2 -a 0 -i 0 -k MAC 
- -t 1.022390494 -s 1 -d -1 -p RTS -e 44 -c 2 -a 0 -i 0 -k MAC
h -t 1.022390494 -s 1 -d -1 -p RTS -e 44 -c 2 -a 0 -i 0 -k MAC
r -t 1.022743661 -s 0 -d -1 -p RTS -e 44 -c 2 -a 0 -i 0 -k MAC
+ -t 1.022753661 -s 0 -d -1 -p CTS -e 38 -c 2 -a 0 -i 0 -k MAC 
- -t 1.022753661 -s 0 -d -1 -p CTS -e 38 -c 2 -a 0 -i 0 -k MAC
h -t 1.022753661 -s 0 -d -1 -p CTS -e 38 -c 2 -a 0 -i 0 -k MAC
r -t 1.023058827 -s 1 -d -1 -p CTS -e 38 -c 2 -a 0 -i 0 -k MAC
+ -t 1.023068827 -s 1 -d 0 -p AODV -e 102 -c 2 -a 0 -i 0 -k MAC 
- -t 1.023068827 -s 1 -d 0 -p AODV -e 102 -c 2 -a 0 -i 0 -k MAC
h -t 1.023068827 -s 1 -d 0 -p AODV -e 102 -c 2 -a 0 -i 0 -k MAC
r -t 1.023885994 -s 0 -d 0 -p AODV -e 44 -c 2 -a 0 -i 0 -k MAC
+ -t 1.023895994 -s 0 -d -1 -p ACK -e 38 -c 2 -a 0 -i 0 -k MAC 
- -t 1.023895994 -s 0 -d -1 -p ACK -e 38 -c 2 -a 0 -i 0 -k MAC
h -t 1.023895994 -s 0 -d -1 -p ACK -e 38 -c 2 -a 0 -i 0 -k MAC
+ -t 1.023910994 -s 0 -d 1 -p cbr -e 532 -c 2 -a 0 -i 0 -k RTR 
- -t 1.023910994 -s 0 -d 1 -p cbr -e 532 -c 2 -a 0 -i 0 -k RTR
h -t 1.023910994 -s 0 -d 1 -p cbr -e 532 -c 2 -a 0 -i 0 -k RTR
r -t 1.024201161 -s 1 -d -1 -p ACK -e 38 -c 2 -a 0 -i 0 -k MAC
+ -t 1.024829994 -s 0 -d -1 -p RTS -e 44 -c 2 -a 0 -i 0 -k MAC 
- -t 1.024829994 -s 0 -d -1 -p RTS -e 44 -c 2 -a 0 -i 0 -k MAC
h -t 1.024829994 -s 0 -d -1 -p RTS -e 44 -c 2 -a 0 -i 0 -k MAC
r -t 1.025183161 -s 1 -d -1 -p RTS -e 44 -c 2 -a 0 -i 0 -k MAC
+ -t 1.025193161 -s 1 -d -1 -p CTS -e 38 -c 2 -a 0 -i 0 -k MAC 
- -t 1.025193161 -s 1 -d -1 -p CTS -e 38 -c 2 -a 0 -i 0 -k MAC
h -t 1.025193161 -s 1 -d -1 -p CTS -e 38 -c 2 -a 0 -i 0 -k MAC
r -t 1.025498327 -s 0 -d -1 -p CTS -e 38 -c 2 -a 0 -i 0 -k MAC
+ -t 1.025508327 -s 0 -d 1 -p cbr -e 590 -c 2 -a 0 -i 0 -k MAC 
- -t 1.025508327 -s 0 -d 1 -p cbr -e 590 -c 2 -a 0 -i 0 -k MAC
h -t 1.025508327 -s 0 -d 1 -p cbr -e 590 -c 2 -a 0 -i 0 -k MAC
r -t 1.030229494 -s 1 -d 1 -p cbr -e 532 -c 2 -a 0 -i 0 -k MAC
+ -t 1.030239494 -s 1 -d -1 -p ACK -e 38 -c 2 -a 0 -i 0 -k MAC 
- -t 1.030239494 -s 1 -d -1 -p ACK -e 38 -c 2 -a 0 -i 0 -k MAC
h -t 1.030239494 -s 1 -d -1 -p ACK -e 38 -c 2 -a 0 -i 0 -k MAC
+ -t 1.030254494 -s 1 -d 2 -p cbr -e 532 -c 2 -a 0 -i 0 -k RTR 
- -t 1.030254494 -s 1 -d 2 -p cbr -e 532 -c 2 -a 0 -i 0 -k RTR
h -t 1.030254494 -s 1 -d 2 -p cbr -e 532 -c 2 -a 0 -i 0 -k RTR
r -t 1.030544661 -s 0 -d -1 -p ACK -e 38 -c 2 -a 0 -i 0 -k MAC
+ -t 1.031133494 -s 1 -d -1 -p ARP -e 86 -c 2 -a 0 -i 0 -k MAC 
- -t 1.031133494 -s 1 -d -1 -p ARP -e 86 -c 2 -a 0 -i 0 -k MAC
h -t 1.031133494 -s 1 -d -1 -p ARP -e 86 -c 2 -a 0 -i 0 -k MAC
r -t 1.031821827 -s 3 -d -1 -p ARP -e 28 -c 2 -a 0 -i 0 -k MAC
r -t 1.031822661 -s 0 -d -1 -p ARP -e 28 -c 2 -a 0 -i 0 -k MAC
r -t 1.031822661 -s 2 -d -1 -p ARP -e 28 -c 2 -a 0 -i 0 -k MAC
+ -t 1.032177661 -s 2 -d -1 -p RTS -e 44 -c 2 -a 0 -i 0 -k MAC 
- -t 1.032177661 -s 2 -d -1 -p RTS -e 44 -c 2 -a 0 -i 0 -k MAC
h -t 1.032177661 -s 2 -d -1 -p RTS -e 44 -c 2 -a 0 -i 0 -k MAC
r -t 1.032530827 -s 1 -d -1 -p RTS -e 44 -c 2 -a 0 -i 0 -k MAC
+ -t 1.032540827 -s 1 -d -1 -p CTS -e 38 -c 2 -a 0 -i 0 -k MAC 
- -t 1.032540827 -s 1 -d -1 -p CTS -e 38 -c 2 -a 0 -i 0 -k MAC
h -t 1.032540827 -s 1 -d -1 -p CTS -e 38 -c 2 -a 0 -i 0 -k MAC
r -t 1.032845994 -s 2 -d -1 -p CTS -e 38 -c 2 -a 0 -i 0 -k MAC
+ -t 1.032855994 -s 2 -d -1 -p ARP -e 86 -c 2 -a 0 -i 0 -k MAC 
- -t 1.032855994 -s 2 -d -1 -p ARP -e 86 -c 2 -a 0 -i 0 -k MAC
h -t 1.032855994 -s 2 -d -1 -p ARP -e 86 -c 2 -a 0 -i 0 -k MAC
r -t 1.033545161 -s 1 -d -1 -p ARP -e 28 -c 2 -a 0 -i 0 -k MAC
+ -t 1.033555161 -s 1 -d -1 -p ACK -e 38 -c 2 -a 0 -i 0 -k MAC 
- -t 1.033555161 -s 1 -d -1 -p ACK -e 38 -c 2 -a 0 -i 0 -k MAC
h -t 1.033555161 -s 1 -d -1 -p ACK -e 38 -c 2 -a 0 -i 0 -k MAC
r -t 1.033860327 -s 2 -d -1 -p ACK -e 38 -c 2 -a 0 -i 0 -k MAC
+ -t 1.034269161 -s 1 -d -1 -p RTS -e 44 -c 2 -a 0 -i 0 -k MAC 
- -t 1.034269161 -s 1 -d -1 -p RTS -e 44 -c 2 -a 0 -i 0 -k MAC
h -t 1.034269161 -s 1 -d -1 -p RTS -e 44 -c 2 -a 0 -i 0 -k MAC
r -t 1.034622327 -s 2 -d -1 -p RTS -e 44 -c 2 -a 0 -i 0 -k MAC
+ -t 1.034632327 -s 2 -d -1 -p CTS -e 38 -c 2 -a 0 -i 0 -k MAC 
- -t 1.034632327 -s 2 -d -1 -p CTS -e 38 -c 2 -a 0 -i 0 -k MAC
h -t 1.034632327 -s 2 -d -1 -p CTS -e 38 -c 2 -a 0 -i 0 -k MAC
r -t 1.034937494 -s 1 -d -1 -p CTS -e 38 -c 2 -a 0 -i 0 -k MAC
+ -t 1.034947494 -s 1 -d 2 -p cbr -e 590 -c 2 -a 0 -i 0 -k MAC 
- -t 1.034947494 -s 1 -d 2 -p cbr -e 590 -c 2 -a 0 -i 0 -k MAC
h -t 1.034947494 -s 1 -d 2 -p cbr -e 590 -c 2 -a 0 -i 0 -k MAC
r -t 1.039668661 -s 2 -d 2 -p cbr -e 532 -c 2 -a 0 -i 0 -k MAC
+ -t 1.039678661 -s 2 -d -1 -p ACK -e 38 -c 2 -a 0 -i 0 -k MAC 
- -t 1.039678661 -s 2 -d -1 -p ACK -e 38 -c 2 -a 0 -i 0 -k MAC
h -t 1.039678661 -s 2 -d -1 -p ACK -e 38 -c 2 -a 0 -i 0 -k MAC
r -t 1.039693661 -s 2 -d 2 -p cbr -e 532 -c 2 -a 0 -i 0 -k AGT
r -t 1.039983827 -s 1 -d -1 -p ACK -e 38 -c 2 -a 0 -i 0 -k MAC
+ -t 1.100000000 -s 0 -d -1 -p cbr -e 512 -c 2 -a 0 -i 2 -k AGT 
- -t 1.100000000 -s 0 -d -1 -p cbr -e 512 -c 2 -a 0 -i 2 -k AGT
h -t 1.100000000 -s 0 -d -1 -p cbr -e 512 -c 2 -a 0 -i 2 -k AGT
+ -t 1.100000000 -s 3 -d -1 -p cbr -e 512 -c 2 -a 0 -i 3 -k AGT 
- -t 1.100000000 -s 3 -d -1 -p cbr -e 512 -c 2 -a 0 -i 3 -k AGT
h -t 1.100000000 -s 3 -d -1 -p cbr -e 512 -c 2 -a 0 -i 3 -k AGT
+ -t 1.100000000 -s 0 -d 1 -p cbr -e 532 -c 2 -a 0 -i 2 -k RTR 
- -t 1.100000000 -s 0 -d 1 -p cbr -e 532 -c 2 -a 0 -i 2 -k RTR
h -t 1.100000000 -s 0 -d 1 -p cbr -e 532 -c 2 -a 0 -i 2 -k RTR
+ -t 1.100000000 -s 3 -d 1 -p cbr -e 532 -c 2 -a 0 -i 3 -k RTR 
- -t 1.100000000 -s 3 -d 1 -p cbr -e 532 -c 2 -a 0 -i 3 -k RTR
h -t 1.100000000 -s 3 -d 1 -p cbr -e 532 -c 2 -a 0 -i 3 -k RTR
+ -t 1.100275000 -s 3 -d -1 -p RTS -e 44 -c 2 -a 0 -i 0 -k MAC 
- -t 1.100275000 -s 3 -d -1 -p RTS -e 44 -c 2 -a 0 -i 0 -k MAC
h -t 1.100275000 -s 3 -d -1 -p RTS -e 44 -c 2 -a 0 -i 0 -k MAC
r -t 1.100627333 -s 1 -d -1 -p RTS -e 44 -c 2 -a 0 -i 0 -k MAC
+ -t 1.100637333 -s 1 -d -1 -p CTS -e 38 -c 2 -a 0 -i 0 -k MAC 
- -t 1.100637333 -s 1 -d -1 -p CTS -e 38 -c 2 -a 0 -i 0 -k MAC
h -t 1.100637333 -s 1 -d -1 -p CTS -e 38 -c 2 -a 0 -i 0 -k MAC
r -t 1.100941667 -s 3 -d -1 -p CTS -e 38 -c 2 -a 0 -i 0 -k MAC
+ -t 1.100951667 -s 3 -d 1 -p cbr -e 590 -c 2 -a 0 -i 3 -k MAC 
- -t 1.100951667 -s 3 -d 1 -p cbr -e 590 -c 2 -a 0 -i 3 -k MAC
h -t 1.100951667 -s 3 -d 1 -p cbr -e 590 -c 2 -a 0 -i 3 -k MAC
r -t 1.105672000 -s 1 -d 1 -p cbr -e 532 -c 2 -a 0 -i 3 -k MAC
+ -t 1.105682000 -s 1 -d -1 -p ACK -e 38 -c 2 -a 0 -i 0 -k MAC 
- -t 1.105682000 -s 1 -d -1 -p ACK -e 38 -c 2 -a 0 -i 0 -k MAC
h -t 1.105682000 -s 1 -d -1 -p ACK -e 38 -c 2 -a 0 -i 0 -k MAC
r -t 1.105697000 -s 1 -d 1 -p cbr -e 532 -c 2 -a 0 -i 3 -k AGT
r -t 1.105986333 -s 3 -d -1 -p ACK -e 38 -c 2 -a 0 -i 0 -k MAC
+ -t 1.106117167 -s 0 -d -1 -p RTS -e 44 -c 2 -a 0 -i 0 -k MAC 
- -t 1.106117167 -s 0 -d -1 -p RTS -e 44 -c 2 -a 0 -i 0 -k MAC
h -t 1.106117167 -s 0 -d -1 -p RTS -e 44 -c 2 -a 0 -i 0 -k MAC
r -t 1.106470333 -s 1 -d -1 -p RTS -e 44 -c 2 -a 0 -i 0 -k MAC
+ -t 1.106480333 -s 1 -d -1 -p CTS -e 38 -c 2 -a 0 -i 0 -k MAC 
- -t 1.106480333 -s 1 -d -1 -p CTS -e 38 -c 2 -a 0 -i 0 -k MAC
h -t 1.106480333 -s 1 -d -1 -p CTS -e 38 -c 2 -a 0 -i 0 -k MAC
r -t 1.106785500 -s 0 -d -1 -p CTS -e 38 -c 2 -a 0 -i 0 -k MAC
+ -t 1.106795500 -s 0 -d 1 -p cbr -e 590 -c 2 -a 0 -i 2 -k MAC 
- -t 1.106795500 -s 0 -d 1 -p cbr -e 590 -c 2 -a 0 -i 2 -k MAC
h -t 1.106795500 -s 0 -d 1 -p cbr -e 590 -c 2 -a 0 -i 2 -k MAC
r -t 1.111516667 -s 1 -d 1 -p cbr -e 532 -c 2 -a 0 -i 2 -k MAC
+ -t 1.111526667 -s 1 -d -1 -p ACK -e 38 -c 2 -a 0 -i 0 -k MAC 
- -t 1.111526667 -s 1 -d -1 -p ACK -e 38 -c 2 -a 0 -i 0 -k MAC
h -t 1.111526667 -s 1 -d -1 -p ACK -e 38 -c 2 -a 0 -i 0 -k MAC
+ -t 1.111541667 -s 1 -d 2 -p cbr -e 532 -c 2 -a 0 -i 2 -k RTR 
- -t 1.111541667 -s 1 -d 2 -p cbr -e 532 -c 2 -a 0 -i 2 -k RTR
h -t 1.111541667 -s 1 -d 2 -p cbr -e 532 -c 2 -a 0 -i 2 -k RTR
r -t 1.111831833 -s 0 -d -1 -p ACK -e 38 -c 2 -a 0 -i 0 -k MAC
+ -t 1.112400667 -s 1 -d -1 -p RTS -e 44 -c 2 -a 0 -i 0 -k MAC 
- -t 1.112400667 -s 1 -d -1 -p RTS -e 44 -c 2 -a 0 -i 0 -k MAC
h -t 1.112400667 -s 1 -d -1 -p RTS -e 44 -c 2 -a 0 -i 0 -k MAC
r -t 1.112753833 -s 2 -d -1 -p RTS -e 44 -c 2 -a 0 -i 0 -k MAC
+ -t 1.112763833 -s 2 -d -1 -p CTS -e 38 -c 2 -a 0 -i 0 -k MAC 
- -t 1.112763833 -s 2 -d -1 -p CTS -e 38 -c 2 -a 0 -i 0 -k MAC
h -t 1.112763833 -s 2 -d -1 -p CTS -e 38 -c 2 -a 0 -i 0 -k MAC
r -t 1.113069000 -s 1 -d -1 -p CTS -e 38 -c 2 -a 0 -i 0 -k MAC
+ -t 1.113079000 -s 1 -d 2 -p cbr -e 590 -c 2 -a 0 -i 2 -k MAC 
- -t 1.113079000 -s 1 -d 2 -p cbr -e 590 -c 2 -a 0 -i 2 -k MAC
h -t 1.113079000 -s 1 -d 2 -p cbr -e 590 -c 2 -a 0 -i 2 -k MAC
r -t 1.117800167 -s 2 -d 2 -p cbr -e 532 -c 2 -a 0 -i 2 -k MAC
+ -t 1.117810167 -s 2 -d -1 -p ACK -e 38 -c 2 -a 0 -i 0 -k MAC 
- -t 1.117810167 -s 2 -d -1 -p ACK -e 38 -c 2 -a 0 -i 0 -k MAC
h -t 1.117810167 -s 2 -d -1 -p ACK -e 38 -c 2 -a 0 -i 0 -k MAC
r -t 1.117825167 -s 2 -d 2 -p cbr -e 532 -c 2 -a 0 -i 2 -k AGT
r -t 1.118115333 -s 1 -d -1 -p ACK -e 38 -c 2 -a 0 -i 0 -k MAC
+ -t 1.200000000 -s 0 -d -1 -p cbr -e 512 -c 2 -a 0 -i 4 -k AGT 
- -t 1.200000000 -s 0 -d -1 -p cbr -e 512 -c 2 -a 0 -i 4 -k AGT
h -t 1.200000000 -s 0 -d -1 -p cbr -e 512 -c 2 -a 0 -i 4 -k AGT
+ -t 1.200000000 -s 3 -d -1 -p cbr -e 512 -c 2 -a 0 -i 5 -k AGT 
- -t 1.200000000 -s 3 -d -1 -p cbr -e 512 -c 2 -a 0 -i 5 -k AGT
h -t 1.200000000 -s 3 -d -1 -p cbr -e 512 -c 2 -a 0 -i 5 -k AGT
+ -t 1.200000000 -s 0 -d 1 -p cbr -e 532 -c 2 -a 0 -i 4 -k RTR 
- -t 1.200000000 -s 0 -d 1 -p cbr -e 532 -c 2 -a 0 -i 4 -k RTR
h -t 1.200000000 -s 0 -d 1 -p cbr -e 532 -c 2 -a 0 -i 4 -k RTR
+ -t 1.200000000 -s 3 -d 1 -p cbr -e 532 -c 2 -a 0 -i 5 -k RTR 
- -t 1.200000000 -s 3 -d 1 -p cbr -e 532 -c 2 -a 0 -i 5 -k RTR
h -t 1.200000000 -s 3 -d 1 -p cbr -e 532 -c 2 -a 0 -i 5 -k RTR
+ -t 1.200135000 -s 3 -d -1 -p RTS -e 44 -c 2 -a 0 -i 0 -k MAC 
- -t 1.200135000 -s 3 -d -1 -p RTS -e 44 -c 2 -a 0 -i 0 -k MAC
h -t 1.200135000 -s 3 -d -1 -p RTS -e 44 -c 2 -a 0 -i 0 -k MAC
r -t 1.200487333 -s 1 -d -1 -p RTS -e 44 -c 2 -a 0 -i 0 -k MAC
+ -t 1.200497333 -s 1 -d -1 -p CTS -e 38 -c 2 -a 0 -i 0 -k MAC 
- -t 1.200497333 -s 1 -d -1 -p CTS -e 38 -c 2 -a 0 -i 0 -k MAC
h -t 1.200497333 -s 1 -d -1 -p CTS -e 38 -c 2 -a 0 -i 0 -k MAC
r -t 1.200801667 -s 3 -d -1 -p CTS -e 38 -c 2 -a 0 -i 0 -k MAC
+ -t 1.200811667 -s 3 -d 1 -p cbr -e 590 -c 2 -a 0 -i 5 -k MAC 
- -t 1.200811667 -s 3 -d 1 -p cbr -e 590 -c 2 -a 0 -i 5 -k MAC
h -t 1.200811667 -s 3 -d 1 -p cbr -e 590 -c 2 -a 0 -i 5 -k MAC
r -t 1.205532000 -s 1 -d 1 -p cbr -e 532 -c 2 -a 0 -i 5 -k MAC
+ -t 1.205542000 -s 1 -d -1 -p ACK -e 38 -c 2 -a 0 -i 0 -k MAC 
- -t 1.205542000 -s 1 -d -1 -p ACK -e 38 -c 2 -a 0 -i 0 -k MAC
h -t 1.205542000 -s 1 -d -1 -p ACK -e 38 -c 2 -a 0 -i 0 -k MAC
r -t 1.205557000 -s 1 -d 1 -p cbr -e 532 -c 2 -a 0 -i 5 -k AGT
r -t 1.205846333 -s 3 -d -1 -p ACK -e 38 -c 2 -a 0 -i 0 -k MAC
+ -t 1.206417167 -s 0 -d -1 -p RTS -e 44 -c 2 -a 0 -i 0 -k MAC 
- -t 1.206417167 -s 0 -d -1 -p RTS -e 44 -c 2 -a 0 -i 0 -k MAC
h -t 1.206417167 -s 0 -d -1 -p RTS -e 44 -c 2 -a 0 -i 0 -k MAC
r -t 1.206770333 -s 1 -d -1 -p RTS -e 44 -c 2 -a 0 -i 0 -k MAC
+ -t 1.206780333 -s 1 -d -1 -p CTS -e 38 -c 2 -a 0 -i 0 -k MAC 
- -t 1.206780333 -s 1 -d -1 -p CTS -e 38 -c 2 -a 0 -i 0 -k MAC
h -t 1.206780333 -s 1 -d -1 -p CTS -e 38 -c 2 -a 0 -i 0 -k MAC
r -t 1.207085500 -s 0 -d -1 -p CTS -e 38 -c 2 -a 0 -i 0 -k MAC
+ -t 1.207095500 -s 0 -d 1 -p cbr -e 590 -c 2 -a 0 -i 4 -k MAC 
- -t 1.207095500 -s 0 -d 1 -p cbr -e 590 -c 2 -a 0 -i 4 -k MAC
h -t 1.207095500 -s 0 -d 1 -p cbr -e 590 -c 2 -a 0 -i 4 -k MAC
r -t 1.211816667 -s 1 -d 1 -p cbr -e 532 -c 2 -a 0 -i 4 -k MAC
+ -t 1.211826667 -s 1 -d -1 -p ACK -e 38 -c 2 -a 0 -i 0 -k MAC 
- -t 1.211826667 -s 1 -d -1 -p ACK -e 38 -c 2 -a 0 -i 0 -k MAC
h -t 1.211826667 -s 1 -d -1 -p ACK -e 38 -c 2 -a 0 -i 0 -k MAC
+ -t 1.211841667 -s 1 -d 2 -p cbr -e 532 -c 2 -a 0 -i 4 -k RTR 
- -t 1.211841667 -s 1 -d 2 -p cbr -e 532 -c 2 -a 0 -i 4 -k RTR
h -t 1.211841667 -s 1 -d 2 -p cbr -e 532 -c 2 -a 0 -i 4 -k RTR
r -t 1.212131833 -s 0 -d -1 -p ACK -e 38 -c 2 -a 0 -i 0 -k MAC
+ -t 1.212520667 -s 1 -d -1 -p RTS -e 44 -c 2 -a 0 -i 0 -k MAC 
- -t 1.212520667 -s 1 -d -1 -p RTS -e 44 -c 2 -a 0 -i 0 -k MAC
h -t 1.212520667 -s 1 -d -1 -p RTS -e 44 -c 2 -a 0 -i 0 -k MAC
r -t 1.212873833 -s 2 -d -1 -p RTS -e 44 -c 2 -a 0 -i 0 -k MAC
+ -t 1.212883833 -s 2 -d -1 -p CTS -e 38 -c 2 -a 0 -i 0 -k MAC 
- -t 1.212883833 -s 2 -d -1 -p CTS -e 38 -c 2 -a 0 -i 0 -k MAC
h -t 1.212883833 -s 2 -d -1 -p CTS -e 38 -c 2 -a 0 -i 0 -k MAC
r -t 1.213189000 -s 1 -d -1 -p CTS -e 38 -c 2 -a 0 -i 0 -k MAC
+ -t 1.213199000 -s 1 -d 2 -p cbr -e 590 -c 2 -a 0 -i 4 -k MAC 
- -t 1.213199000 -s 1 -d 2 -p cbr -e 590 -c 2 -a 0 -i 4 -k MAC
h -t 1.213199000 -s 1 -d 2 -p cbr -e 590 -c 2 -a 0 -i 4 -k MAC
r -t 1.217920167 -s 2 -d 2 -p cbr -e 532 -c 2 -a 0 -i 4 -k MAC
+ -t 1.217930167 -s 2 -d -1 -p ACK -e 38 -c 2 -a 0 -i 0 -k MAC 
- -t 1.217930167 -s 2 -d -1 -p ACK -e 38 -c 2 -a 0 -i 0 -k MAC
h -t 1.217930167 -s 2 -d -1 -p ACK -e 38 -c 2 -a 0 -i 0 -k MAC
r -t 1.217945167 -s 2 -d 2 -p cbr -e 532 -c 2 -a 0 -i 4 -k AGT
r -t 1.218235333 -s 1 -d -1 -p ACK -e 38 -c 2 -a 0 -i 0 -k MAC
+ -t 1.300000000 -s 0 -d -1 -p cbr -e 512 -c 2 -a 0 -i 6 -k AGT 
- -t 1.300000000 -s 0 -d -1 -p cbr -e 512 -c 2 -a 0 -i 6 -k AGT
h -t 1.300000000 -s 0 -d -1 -p cbr -e 512 -c 2 -a 0 -i 6 -k AGT
+ -t 1.300000000 -s 3 -d -1 -p cbr -e 512 -c 2 -a 0 -i 7 -k AGT 
- -t 1.300000000 -s 3 -d -1 -p cbr -e 512 -c 2 -a 0 -i 7 -k AGT
h -t 1.300000000 -s 3 -d -1 -p cbr -e 512 -c 2 -a 0 -i 7 -k AGT
+ -t 1.300000000 -s 0 -d 1 -p cbr -e 532 -c 2 -a 0 -i 6 -k RTR 
- -t 1.300000000 -s 0 -d 1 -p cbr -e 532 -c 2 -a 0 -i 6 -k RTR
h -t 1.300000000 -s 0 -d 1 -p cbr -e 532 -c 2 -a 0 -i 6 -k RTR
+ -t 1.300000000 -s 3 -d 1 -p cbr -e 532 -c 2 -a 0 -i 7 -k RTR 
- -t 1.300000000 -s 3 -d 1 -p cbr -e 532 -c 2 -a 0 -i 7 -k RTR
h -t 1.300000000 -s 3 -d 1 -p cbr -e 532 -c 2 -a 0 -i 7 -k RTR
+ -t 1.300255000 -s 0 -d -1 -p RTS -e 44 -c 2 -a 0 -i 0 -k MAC 
- -t 1.300255000 -s 0 -d -1 -p RTS -e 44 -c 2 -a 0 -i 0 -k MAC
h -t 1.300255000 -s 0 -d -1 -p RTS -e 44 -c 2 -a 0 -i 0 -k MAC
r -t 1.300608167 -s 1 -d -1 -p RTS -e 44 -c 2 -a 0 -i 0 -k MAC
+ -t 1.300618167 -s 1 -d -1 -p CTS -e 38 -c 2 -a 0 -i 0 -k MAC 
- -t 1.300618167 -s 1 -d -1 -p CTS -e 38 -c 2 -a 0 -i 0 -k MAC
h -t 1.300618167 -s 1 -d -1 -p CTS -e 38 -c 2 -a 0 -i 0 -k MAC
r -t 1.300923333 -s 0 -d -1 -p CTS -e 38 -c 2 -a 0 -i 0 -k MAC
+ -t 1.300933333 -s 0 -d 1 -p cbr -e 590 -c 2 -a 0 -i 6 -k MAC 
- -t 1.300933333 -s 0 -d 1 -p cbr -e 590 -c 2 -a 0 -i 6 -k MAC
h -t 1.300933333 -s 0 -d 1 -p cbr -e 590 -c 2 -a 0 -i 6 -k MAC
r -t 1.305654500 -s 1 -d 1 -p cbr -e 532 -c 2 -a 0 -i 6 -k MAC
+ -t 1.305664500 -s 1 -d -1 -p ACK -e 38 -c 2 -a 0 -i 0 -k MAC 
- -t 1.305664500 -s 1 -d -1 -p ACK -e 38 -c 2 -a 0 -i 0 -k MAC
h -t 1.305664500 -s 1 -d -1 -p ACK -e 38 -c 2 -a 0 -i 0 -k MAC
+ -t 1.305679500 -s 1 -d 2 -p cbr -e 532 -c 2 -a 0 -i 6 -k RTR 
- -t 1.305679500 -s 1 -d 2 -p cbr -e 532 -c 2 -a 0 -i 6 -k RTR
h -t 1.305679500 -s 1 -d 2 -p cbr -e 532 -c 2 -a 0 -i 6 -k RTR
r -t 1.305969667 -s 0 -d -1 -p ACK -e 38 -c 2 -a 0 -i 0 -k MAC
+ -t 1.306118833 -s 3 -d -1 -p RTS -e 44 -c 2 -a 0 -i 0 -k MAC 
- -t 1.306118833 -s 3 -d -1 -p RTS -e 44 -c 2 -a 0 -i 0 -k MAC
h -t 1.306118833 -s 3 -d -1 -p RTS -e 44 -c 2 -a 0 -i 0 -k MAC
r -t 1.306471167 -s 1 -d -1 -p RTS -e 44 -c 2 -a 0 -i 0 -k MAC
+ -t 1.306481167 -s 1 -d -1 -p CTS -e 38 -c 2 -a 0 -i 0 -k MAC 
- -t 1.306481167 -s 1 -d -1 -p CTS -e 38 -c 2 -a 0 -i 0 -k MAC
h -t 1.306481167 -s 1 -d -1 -p CTS -e 38 -c 2 -a 0 -i 0 -k MAC
r -t 1.306785500 -s 3 -d -1 -p CTS -e 38 -c 2 -a 0 -i 0 -k MAC
+ -t 1.306795500 -s 3 -d 1 -p cbr -e 590 -c 2 -a 0 -i 7 -k MAC 
- -t 1.306795500 -s 3 -d 1 -p cbr -e 590 -c 2 -a 0 -i 7 -k MAC
h -t 1.306795500 -s 3 -d 1 -p cbr -e 590 -c 2 -a 0 -i 7 -k MAC
r -t 1.311515833 -s 1 -d 1 -p cbr -e 532 -c 2 -a 0 -i 7 -k MAC
+ -t 1.311525833 -s 1 -d -1 -p ACK -e 38 -c 2 -a 0 -i 0 -k MAC 
- -t 1.311525833 -s 1 -d -1 -p ACK -e 38 -c 2 -a 0 -i 0 -k MAC
h -t 1.311525833 -s 1 -d -1 -p ACK -e 38 -c 2 -a 0 -i 0 -k MAC
r -t 1.311540833 -s 1 -d 1 -p cbr -e 532 -c 2 -a 0 -i 7 -k AGT
r -t 1.311830167 -s 3 -d -1 -p ACK -e 38 -c 2 -a 0 -i 0 -k MAC
+ -t 1.312259833 -s 1 -d -1 -p RTS -e 44 -c 2 -a 0 -i 0 -k MAC 
- -t 1.312259833 -s 1 -d -1 -p RTS -e 44 -c 2 -a 0 -i 0 -k MAC
h -t 1.312259833 -s 1 -d -1 -p RTS -e 44 -c 2 -a 0 -i 0 -k MAC
r -t 1.312613000 -s 2 -d -1 -p RTS -e 44 -c 2 -a 0 -i 0 -k MAC
+ -t 1.312623000 -s 2 -d -1 -p CTS -e 38 -c 2 -a 0 -i 0 -k MAC 
- -t 1.312623000 -s 2 -d -1 -p CTS -e 38 -c 2 -a 0 -i 0 -k MAC
h -t 1.312623000 -s 2 -d -1 -p CTS -e 38 -c 2 -a 0 -i 0 -k MAC
r -t 1.312928167 -s 1 -d -1 -p CTS -e 38 -c 2 -a 0 -i 0 -k MAC
+ -t 1.312938167 -s 1 -d 2 -p cbr -e 590 -c 2 -a 0 -i 6 -k MAC 
- -t 1.312938167 -s 1 -d 2 -p cbr -e 590 -c 2 -a 0 -i 6 -k MAC
h -t 1.312938167 -s 1 -d 2 -p cbr -e 590 -c 2 -a 0 -i 6 -k MAC
r -t 1.317659333 -s 2 -d 2 -p cbr -e 532 -c 2 -a 0 -i 6 -k MAC
+ -t 1.317669333 -s 2 -d -1 -p ACK -e 38 -c 2 -a 0 -i 0 -k MAC 
- -t 1.317669333 -s 2 -d -1 -p ACK -e 38 -c 2 -a 0 -i 0 -k MAC
h -t 1.317669333 -s 2 -d -1 -p ACK -e 38 -c 2 -a 0 -i 0 -k MAC
r -t 1.317684333 -s 2 -d 2 -p cbr -e 532 -c 2 -a 0 -i 6 -k AGT
r -t 1.317974500 -s 1 -d -1 -p ACK -e 38 -c 2 -a 0 -i 0 -k MAC
+ -t 1.400000000 -s 0 -d -1 -p cbr -e 512 -c 2 -a 0 -i 8 -k AGT 
- -t 1.400000000 -s 0 -d -1 -p cbr -e 512 -c 2 -a 0 -i 8 -k AGT
h -t 1.400000000 -s 0 -d -1 -p cbr -e 512 -c 2 -a 0 -i 8 -k AGT
+ -t 1.400000000 -s 3 -d -1 -p cbr -e 512 -c 2 -a 0 -i 9 -k AGT 
- -t 1.400000000 -s 3 -d -1 -p cbr -e 512 -c 2 -a 0 -i 9 -k AGT
h -t 1.400000000 -s 3 -d -1 -p cbr -e 512 -c 2 -a 0 -i 9 -k AGT
+ -t 1.400000000 -s 0 -d 1 -p cbr -e 532 -c 2 -a 0 -i 8 -k RTR 
- -t 1.400000000 -s 0 -d 1 -p cbr -e 532 -c 2 -a 0 -i 8 -k RTR
h -t 1.400000000 -s 0 -d 1 -p cbr -e 532 -c 2 -a 0 -i 8 -k RTR
+ -t 1.400000000 -s 3 -d 1 -p cbr -e 532 -c 2 -a 0 -i 9 -k RTR 
- -t 1.400000000 -s 3 -d 1 -p cbr -e 532 -c 2 -a 0 -i 9 -k RTR
h -t 1.400000000 -s 3 -d 1 -p cbr -e 532 -c 2 -a 0 -i 9 -k RTR
+ -t 1.400235000 -s 0 -d -1 -p RTS -e 44 -c 2 -a 0 -i 0 -k MAC 
- -t 1.400235000 -s 0 -d -1 -p RTS -e 44 -c 2 -a 0 -i 0 -k MAC
h -t 1.400235000 -s 0 -d -1 -p RTS -e 44 -c 2 -a 0 -i 0 -k MAC
r -t 1.400588167 -s 1 -d -1 -p RTS -e 44 -c 2 -a 0 -i 0 -k MAC
+ -t 1.400598167 -s 1 -d -1 -p CTS -e 38 -c 2 -a 0 -i 0 -k MAC 
- -t 1.400598167 -s 1 -d -1 -p CTS -e 38 -c 2 -a 0 -i 0 -k MAC
h -t 1.400598167 -s 1 -d -1 -p CTS -e 38 -c 2 -a 0 -i 0 -k MAC
r -t 1.400903333 -s 0 -d -1 -p CTS -e 38 -c 2 -a 0 -i 0 -k MAC
+ -t 1.400913333 -s 0 -d 1 -p cbr -e 590 -c 2 -a 0 -i 8 -k MAC 