s -t 1.000000000 -Hs 0 -Hd -2 -Ni 0 -Nx 0.00 -Ny 200.00 -Nz 100.00 -Ne -1.000000 -Nl AGT -Nw --- -Ma 0 -Md 0 -Ms 0 -Mt 0 -Is 0.0 -Id 2.0 -It cbr -Il 512 -If 0 -Ii 0 -Iv 32 -Pn cbr -Pi 0 -Pf 0 -Po 0 
r -t 1.000000000 -Hs 0 -Hd -2 -Ni 0 -Nx 0.00 -Ny 200.00 -Nz 100.00 -Ne -1.000000 -Nl RTR -Nw --- -Ma 0 -Md 0 -Ms 0 -Mt 0 -Is 0.0 -Id 2.0 -It cbr -Il 512 -If 0 -Ii 0 -Iv 32 -Pn cbr -Pi 0 -Pf 0 -Po 0 
s -t 1.000000000 -Hs 3 -Hd -2 -Ni 3 -Nx 350.00 -Ny 100.00 -Nz 100.00 -Ne -1.000000 -Nl AGT -Nw --- -Ma 0 -Md 0 -Ms 0 -Mt 0 -Is 3.0 -Id 4.1 -It cbr -Il 512 -If 2 -Ii 1 -Iv 32 -Pn cbr -Pi 0 -Pf 0 -Po 0 
r -t 1.000000000 -Hs 3 -Hd -2 -Ni 3 -Nx 350.00 -Ny 100.00 -Nz 100.00 -Ne -1.000000 -Nl RTR -Nw --- -Ma 0 -Md 0 -Ms 0 -Mt 0 -Is 3.0 -Id 4.1 -It cbr -Il 512 -If 2 -Ii 1 -Iv 32 -Pn cbr -Pi 0 -Pf 0 -Po 0 
s -t 1.000000000 -Hs 4 -Hd -2 -Ni 4 -Nx 550.00 -Ny 100.00 -Nz 100.00 -Ne -1.000000 -Nl AGT -Nw --- -Ma 0 -Md 0 -Ms 0 -Mt 0 -Is 4.0 -Id 1.0 -It cbr -Il 512 -If 0 -Ii 2 -Iv 32 -Pn cbr -Pi 0 -Pf 0 -Po 0 
r -t 1.000000000 -Hs 4 -Hd -2 -Ni 4 -Nx 550.00 -Ny 100.00 -Nz 100.00 -Ne -1.000000 -Nl RTR -Nw --- -Ma 0 -Md 0 -Ms 0 -Mt 0 -Is 4.0 -Id 1.0 -It cbr -Il 512 -If 0 -Ii 2 -Iv 32 -Pn cbr -Pi 0 -Pf 0 -Po 0 
s -t 1.000000000 -Hs 0 -Hd -2 -Ni 0 -Nx 0.00 -Ny 200.00 -Nz 100.00 -Ne -1.000000 -Nl RTR -Nw --- -Ma 0 -Md 0 -Ms 0 -Mt 0 -Is 0.255 -Id -1.255 -It AODV -Il 48 -If 0 -Ii 0 -Iv 30 -P aodv -Pt 0x2 -Ph 1 -Pb 1 -Pd 2 -Pds 0 -Ps 0 -Pss 4 -Pc REQUEST 
s -t 1.000000000 -Hs 3 -Hd -2 -Ni 3 -Nx 350.00 -Ny 100.00 -Nz 100.00 -Ne -1.000000 -Nl RTR -Nw --- -Ma 0 -Md 0 -Ms 0 -Mt 0 -Is 3.255 -Id -1.255 -It AODV -Il 48 -If 0 -Ii 0 -Iv 30 -P aodv -Pt 0x2 -Ph 1 -Pb 1 -Pd 4 -Pds 0 -Ps 3 -Pss 4 -Pc REQUEST 
s -t 1.000000000 -Hs 4 -Hd -2 -Ni 4 -Nx 550.00 -Ny 100.00 -Nz 100.00 -Ne -1.000000 -Nl RTR -Nw --- -Ma 0 -Md 0 -Ms 0 -Mt 0 -Is 4.255 -Id -1.255 -It AODV -Il 48 -If 0 -Ii 0 -Iv 30 -P aodv -Pt 0x2 -Ph 1 -Pb 1 -Pd 1 -Pds 0 -Ps 4 -Pss 4 -Pc REQUEST 
s -t 1.000115000 -Hs 3 -Hd -2 -Ni 3 -Nx 350.00 -Ny 100.00 -Nz 100.00 -Ne -1.000000 -Nl MAC -Nw --- -Ma 0 -Md ffffffff -Ms 3 -Mt 800 -Is 3.255 -Id -1.255 -It AODV -Il 106 -If 0 -Ii 0 -Iv 30 -P aodv -Pt 0x2 -Ph 1 -Pb 1 -Pd 4 -Pds 0 -Ps 3 -Pss 4 -Pc REQUEST 
r -t 1.000963333 -Hs 1 -Hd -2 -Ni 1 -Nx 350.00 -Ny 200.00 -Nz 100.00 -Ne -1.000000 -Nl MAC -Nw --- -Ma 0 -Md ffffffff -Ms 3 -Mt 800 -Is 3.255 -Id -1.255 -It AODV -Il 48 -If 0 -Ii 0 -Iv 30 -P aodv -Pt 0x2 -Ph 1 -Pb 1 -Pd 4 -Pds 0 -Ps 3 -Pss 4 -Pc REQUEST 
r -t 1.000963667 -Hs 4 -Hd -2 -Ni 4 -Nx 550.00 -Ny 100.00 -Nz 100.00 -Ne -1.000000 -Nl MAC -Nw --- -Ma 0 -Md ffffffff -Ms 3 -Mt 800 -Is 3.255 -Id -1.255 -It AODV -Il 48 -If 0 -Ii 0 -Iv 30 -P aodv -Pt 0x2 -Ph 1 -Pb 1 -Pd 4 -Pds 0 -Ps 3 -Pss 4 -Pc REQUEST 
r -t 1.000964213 -Hs 0 -Hd -2 -Ni 0 -Nx 0.00 -Ny 200.00 -Nz 100.00 -Ne -1.000000 -Nl MAC -Nw --- -Ma 0 -Md ffffffff -Ms 3 -Mt 800 -Is 3.255 -Id -1.255 -It AODV -Il 48 -If 0 -Ii 0 -Iv 30 -P aodv -Pt 0x2 -Ph 1 -Pb 1 -Pd 4 -Pds 0 -Ps 3 -Pss 4 -Pc REQUEST 
r -t 1.000964213 -Hs 2 -Hd -2 -Ni 2 -Nx 700.00 -Ny 200.00 -Nz 100.00 -Ne -1.000000 -Nl MAC -Nw --- -Ma 0 -Md ffffffff -Ms 3 -Mt 800 -Is 3.255 -Id -1.255 -It AODV -Il 48 -If 0 -Ii 0 -Iv 30 -P aodv -Pt 0x2 -Ph 1 -Pb 1 -Pd 4 -Pds 0 -Ps 3 -Pss 4 -Pc REQUEST 
r -t 1.000988333 -Hs 1 -Hd -2 -Ni 1 -Nx 350.00 -Ny 200.00 -Nz 100.00 -Ne -1.000000 -Nl RTR -Nw --- -Ma 0 -Md ffffffff -Ms 3 -Mt 800 -Is 3.255 -Id -1.255 -It AODV -Il 48 -If 0 -Ii 0 -Iv 30 -P aodv -Pt 0x2 -Ph 1 -Pb 1 -Pd 4 -Pds 0 -Ps 3 -Pss 4 -Pc REQUEST 
r -t 1.000988667 -Hs 4 -Hd -2 -Ni 4 -Nx 550.00 -Ny 100.00 -Nz 100.00 -Ne -1.000000 -Nl RTR -Nw --- -Ma 0 -Md ffffffff -Ms 3 -Mt 800 -Is 3.255 -Id -1.255 -It AODV -Il 48 -If 0 -Ii 0 -Iv 30 -P aodv -Pt 0x2 -Ph 1 -Pb 1 -Pd 4 -Pds 0 -Ps 3 -Pss 4 -Pc REQUEST 
s -t 1.000988667 -Hs 4 -Hd 3 -Ni 4 -Nx 550.00 -Ny 100.00 -Nz 100.00 -Ne -1.000000 -Nl RTR -Nw --- -Ma 0 -Md 0 -Ms 0 -Mt 0 -Is 4.255 -Id 3.255 -It AODV -Il 44 -If 0 -Ii 0 -Iv 30 -P aodv -Pt 0x4 -Ph 1 -Pd 4 -Pds 6 -Pl 10.000000 -Pc REPLY 
r -t 1.000989213 -Hs 0 -Hd -2 -Ni 0 -Nx 0.00 -Ny 200.00 -Nz 100.00 -Ne -1.000000 -Nl RTR -Nw --- -Ma 0 -Md ffffffff -Ms 3 -Mt 800 -Is 3.255 -Id -1.255 -It AODV -Il 48 -If 0 -Ii 0 -Iv 30 -P aodv -Pt 0x2 -Ph 1 -Pb 1 -Pd 4 -Pds 0 -Ps 3 -Pss 4 -Pc REQUEST 
r -t 1.000989213 -Hs 2 -Hd -2 -Ni 2 -Nx 700.00 -Ny 200.00 -Nz 100.00 -Ne -1.000000 -Nl RTR -Nw --- -Ma 0 -Md ffffffff -Ms 3 -Mt 800 -Is 3.255 -Id -1.255 -It AODV -Il 48 -If 0 -Ii 0 -Iv 30 -P aodv -Pt 0x2 -Ph 1 -Pb 1 -Pd 4 -Pds 0 -Ps 3 -Pss 4 -Pc REQUEST 
s -t 1.001434213 -Hs 0 -Hd -2 -Ni 0 -Nx 0.00 -Ny 200.00 -Nz 100.00 -Ne -1.000000 -Nl MAC -Nw --- -Ma 0 -Md ffffffff -Ms 0 -Mt 800 -Is 0.255 -Id -1.255 -It AODV -Il 106 -If 0 -Ii 0 -Iv 30 -P aodv -Pt 0x2 -Ph 1 -Pb 1 -Pd 2 -Pds 0 -Ps 0 -Pss 4 -Pc REQUEST 
r -t 1.002283380 -Hs 1 -Hd -2 -Ni 1 -Nx 350.00 -Ny 200.00 -Nz 100.00 -Ne -1.000000 -Nl MAC -Nw --- -Ma 0 -Md ffffffff -Ms 0 -Mt 800 -Is 0.255 -Id -1.255 -It AODV -Il 48 -If 0 -Ii 0 -Iv 30 -P aodv -Pt 0x2 -Ph 1 -Pb 1 -Pd 2 -Pds 0 -Ps 0 -Pss 4 -Pc REQUEST 
r -t 1.002283427 -Hs 3 -Hd -2 -Ni 3 -Nx 350.00 -Ny 100.00 -Nz 100.00 -Ne -1.000000 -Nl MAC -Nw --- -Ma 0 -Md ffffffff -Ms 0 -Mt 800 -Is 0.255 -Id -1.255 -It AODV -Il 48 -If 0 -Ii 0 -Iv 30 -P aodv -Pt 0x2 -Ph 1 -Pb 1 -Pd 2 -Pds 0 -Ps 0 -Pss 4 -Pc REQUEST 
r -t 1.002284077 -Hs 4 -Hd -2 -Ni 4 -Nx 550.00 -Ny 100.00 -Nz 100.00 -Ne -1.000000 -Nl MAC -Nw --- -Ma 0 -Md ffffffff -Ms 0 -Mt 800 -Is 0.255 -Id -1.255 -It AODV -Il 48 -If 0 -Ii 0 -Iv 30 -P aodv -Pt 0x2 -Ph 1 -Pb 1 -Pd 2 -Pds 0 -Ps 0 -Pss 4 -Pc REQUEST 
r -t 1.002308380 -Hs 1 -Hd -2 -Ni 1 -Nx 350.00 -Ny 200.00 -Nz 100.00 -Ne -1.000000 -Nl RTR -Nw --- -Ma 0 -Md ffffffff -Ms 0 -Mt 800 -Is 0.255 -Id -1.255 -It AODV -Il 48 -If 0 -Ii 0 -Iv 30 -P aodv -Pt 0x2 -Ph 1 -Pb 1 -Pd 2 -Pds 0 -Ps 0 -Pss 4 -Pc REQUEST 
r -t 1.002308427 -Hs 3 -Hd -2 -Ni 3 -Nx 350.00 -Ny 100.00 -Nz 100.00 -Ne -1.000000 -Nl RTR -Nw --- -Ma 0 -Md ffffffff -Ms 0 -Mt 800 -Is 0.255 -Id -1.255 -It AODV -Il 48 -If 0 -Ii 0 -Iv 30 -P aodv -Pt 0x2 -Ph 1 -Pb 1 -Pd 2 -Pds 0 -Ps 0 -Pss 4 -Pc REQUEST 
r -t 1.002309077 -Hs 4 -Hd -2 -Ni 4 -Nx 550.00 -Ny 100.00 -Nz 100.00 -Ne -1.000000 -Nl RTR -Nw --- -Ma 0 -Md ffffffff -Ms 0 -Mt 800 -Is 0.255 -Id -1.255 -It AODV -Il 48 -If 0 -Ii 0 -Iv 30 -P aodv -Pt 0x2 -Ph 1 -Pb 1 -Pd 2 -Pds 0 -Ps 0 -Pss 4 -Pc REQUEST 
s -t 1.002434077 -Hs 4 -Hd -2 -Ni 4 -Nx 550.00 -Ny 100.00 -Nz 100.00 -Ne -1.000000 -Nl MAC -Nw --- -Ma 0 -Md ffffffff -Ms 4 -Mt 800 -Is 4.255 -Id -1.255 -It AODV -Il 106 -If 0 -Ii 0 -Iv 30 -P aodv -Pt 0x2 -Ph 1 -Pb 1 -Pd 1 -Pds 0 -Ps 4 -Pss 4 -Pc REQUEST 
r -t 1.003282678 -Hs 2 -Hd -2 -Ni 2 -Nx 700.00 -Ny 200.00 -Nz 100.00 -Ne -1.000000 -Nl MAC -Nw --- -Ma 0 -Md ffffffff -Ms 4 -Mt 800 -Is 4.255 -Id -1.255 -It AODV -Il 48 -If 0 -Ii 0 -Iv 30 -P aodv -Pt 0x2 -Ph 1 -Pb 1 -Pd 1 -Pds 0 -Ps 4 -Pss 4 -Pc REQUEST 
r -t 1.003282743 -Hs 3 -Hd -2 -Ni 3 -Nx 350.00 -Ny 100.00 -Nz 100.00 -Ne -1.000000 -Nl MAC -Nw --- -Ma 0 -Md ffffffff -Ms 4 -Mt 800 -Is 4.255 -Id -1.255 -It AODV -Il 48 -If 0 -Ii 0 -Iv 30 -P aodv -Pt 0x2 -Ph 1 -Pb 1 -Pd 1 -Pds 0 -Ps 4 -Pss 4 -Pc REQUEST 
r -t 1.003282822 -Hs 1 -Hd -2 -Ni 1 -Nx 350.00 -Ny 200.00 -Nz 100.00 -Ne -1.000000 -Nl MAC -Nw --- -Ma 0 -Md ffffffff -Ms 4 -Mt 800 -Is 4.255 -Id -1.255 -It AODV -Il 48 -If 0 -Ii 0 -Iv 30 -P aodv -Pt 0x2 -Ph 1 -Pb 1 -Pd 1 -Pds 0 -Ps 4 -Pss 4 -Pc REQUEST 
r -t 1.003283940 -Hs 0 -Hd -2 -Ni 0 -Nx 0.00 -Ny 200.00 -Nz 100.00 -Ne -1.000000 -Nl MAC -Nw --- -Ma 0 -Md ffffffff -Ms 4 -Mt 800 -Is 4.255 -Id -1.255 -It AODV -Il 48 -If 0 -Ii 0 -Iv 30 -P aodv -Pt 0x2 -Ph 1 -Pb 1 -Pd 1 -Pds 0 -Ps 4 -Pss 4 -Pc REQUEST 
r -t 1.003307678 -Hs 2 -Hd -2 -Ni 2 -Nx 700.00 -Ny 200.00 -Nz 100.00 -Ne -1.000000 -Nl RTR -Nw --- -Ma 0 -Md ffffffff -Ms 4 -Mt 800 -Is 4.255 -Id -1.255 -It AODV -Il 48 -If 0 -Ii 0 -Iv 30 -P aodv -Pt 0x2 -Ph 1 -Pb 1 -Pd 1 -Pds 0 -Ps 4 -Pss 4 -Pc REQUEST 
r -t 1.003307743 -Hs 3 -Hd -2 -Ni 3 -Nx 350.00 -Ny 100.00 -Nz 100.00 -Ne -1.000000 -Nl RTR -Nw --- -Ma 0 -Md ffffffff -Ms 4 -Mt 800 -Is 4.255 -Id -1.255 -It AODV -Il 48 -If 0 -Ii 0 -Iv 30 -P aodv -Pt 0x2 -Ph 1 -Pb 1 -Pd 1 -Pds 0 -Ps 4 -Pss 4 -Pc REQUEST 
s -t 1.003307743 -Hs 3 -Hd 4 -Ni 3 -Nx 350.00 -Ny 100.00 -Nz 100.00 -Ne -1.000000 -Nl RTR -Nw --- -Ma 0 -Md 0 -Ms 0 -Mt 0 -Is 3.0 -Id 4.1 -It cbr -Il 532 -If 2 -Ii 1 -Iv 30 -Pn cbr -Pi 0 -Pf 0 -Po 0 
r -t 1.003307822 -Hs 1 -Hd -2 -Ni 1 -Nx 350.00 -Ny 200.00 -Nz 100.00 -Ne -1.000000 -Nl RTR -Nw --- -Ma 0 -Md ffffffff -Ms 4 -Mt 800 -Is 4.255 -Id -1.255 -It AODV -Il 48 -If 0 -Ii 0 -Iv 30 -P aodv -Pt 0x2 -Ph 1 -Pb 1 -Pd 1 -Pds 0 -Ps 4 -Pss 4 -Pc REQUEST 
s -t 1.003307822 -Hs 1 -Hd 4 -Ni 1 -Nx 350.00 -Ny 200.00 -Nz 100.00 -Ne -1.000000 -Nl RTR -Nw --- -Ma 0 -Md 0 -Ms 0 -Mt 0 -Is 1.255 -Id 4.255 -It AODV -Il 44 -If 0 -Ii 0 -Iv 30 -P aodv -Pt 0x4 -Ph 1 -Pd 1 -Pds 4 -Pl 10.000000 -Pc REPLY 
r -t 1.003308940 -Hs 0 -Hd -2 -Ni 0 -Nx 0.00 -Ny 200.00 -Nz 100.00 -Ne -1.000000 -Nl RTR -Nw --- -Ma 0 -Md ffffffff -Ms 4 -Mt 800 -Is 4.255 -Id -1.255 -It AODV -Il 48 -If 0 -Ii 0 -Iv 30 -P aodv -Pt 0x2 -Ph 1 -Pb 1 -Pd 1 -Pds 0 -Ps 4 -Pss 4 -Pc REQUEST 
s -t 1.003572077 -Hs 4 -Hd -2 -Ni 4 -Nx 550.00 -Ny 100.00 -Nz 100.00 -Ne -1.000000 -Nl MAC -Nw --- -Ma 0 -Md ffffffff -Ms 4 -Mt 806 -P arp -Po REQUEST -Pms 4 -Ps 4 -Pmd 0 -Pd 3 
s -t 1.003735689 -Hs 3 -Hd -2 -Ni 3 -Nx 350.00 -Ny 100.00 -Nz 100.00 -Ne -1.000000 -Nl RTR -Nw --- -Ma 0 -Md ffffffff -Ms 4 -Mt 800 -Is 3.255 -Id -1.255 -It AODV -Il 48 -If 0 -Ii 0 -Iv 29 -P aodv -Pt 0x2 -Ph 2 -Pb 1 -Pd 1 -Pds 0 -Ps 4 -Pss 4 -Pc REQUEST 
s -t 1.004118831 -Hs 2 -Hd -2 -Ni 2 -Nx 700.00 -Ny 200.00 -Nz 100.00 -Ne -1.000000 -Nl RTR -Nw --- -Ma 0 -Md ffffffff -Ms 3 -Mt 800 -Is 2.255 -Id -1.255 -It AODV -Il 48 -If 0 -Ii 0 -Iv 29 -P aodv -Pt 0x2 -Ph 2 -Pb 1 -Pd 4 -Pds 0 -Ps 3 -Pss 4 -Pc REQUEST 
r -t 1.004260678 -Hs 2 -Hd -2 -Ni 2 -Nx 700.00 -Ny 200.00 -Nz 100.00 -Ne -1.000000 -Nl MAC -Nw --- -Ma 0 -Md ffffffff -Ms 4 -Mt 806 -P arp -Po REQUEST -Pms 4 -Ps 4 -Pmd 0 -Pd 3 
r -t 1.004260743 -Hs 3 -Hd -2 -Ni 3 -Nx 350.00 -Ny 100.00 -Nz 100.00 -Ne -1.000000 -Nl MAC -Nw --- -Ma 0 -Md ffffffff -Ms 4 -Mt 806 -P arp -Po REQUEST -Pms 4 -Ps 4 -Pmd 0 -Pd 3 
r -t 1.004260822 -Hs 1 -Hd -2 -Ni 1 -Nx 350.00 -Ny 200.00 -Nz 100.00 -Ne -1.000000 -Nl MAC -Nw --- -Ma 0 -Md ffffffff -Ms 4 -Mt 806 -P arp -Po REQUEST -Pms 4 -Ps 4 -Pmd 0 -Pd 3 
r -t 1.004261940 -Hs 0 -Hd -2 -Ni 0 -Nx 0.00 -Ny 200.00 -Nz 100.00 -Ne -1.000000 -Nl MAC -Nw --- -Ma 0 -Md ffffffff -Ms 4 -Mt 806 -P arp -Po REQUEST -Pms 4 -Ps 4 -Pmd 0 -Pd 3 
s -t 1.004350822 -Hs 1 -Hd -2 -Ni 1 -Nx 350.00 -Ny 200.00 -Nz 100.00 -Ne -1.000000 -Nl MAC -Nw --- -Ma 0 -Md ffffffff -Ms 1 -Mt 806 -P arp -Po REQUEST -Pms 1 -Ps 1 -Pmd 0 -Pd 4 
s -t 1.004654398 -Hs 1 -Hd -2 -Ni 1 -Nx 350.00 -Ny 200.00 -Nz 100.00 -Ne -1.000000 -Nl RTR -Nw --- -Ma 0 -Md ffffffff -Ms 0 -Mt 800 -Is 1.255 -Id -1.255 -It AODV -Il 48 -If 0 -Ii 0 -Iv 29 -P aodv -Pt 0x2 -Ph 2 -Pb 1 -Pd 2 -Pds 0 -Ps 0 -Pss 4 -Pc REQUEST 
s -t 1.004949132 -Hs 2 -Hd -2 -Ni 2 -Nx 700.00 -Ny 200.00 -Nz 100.00 -Ne -1.000000 -Nl RTR -Nw --- -Ma 0 -Md ffffffff -Ms 4 -Mt 800 -Is 2.255 -Id -1.255 -It AODV -Il 48 -If 0 -Ii 0 -Iv 29 -P aodv -Pt 0x2 -Ph 2 -Pb 1 -Pd 1 -Pds 0 -Ps 4 -Pss 4 -Pc REQUEST 
r -t 1.005039155 -Hs 3 -Hd -2 -Ni 3 -Nx 350.00 -Ny 100.00 -Nz 100.00 -Ne -1.000000 -Nl MAC -Nw --- -Ma 0 -Md ffffffff -Ms 1 -Mt 806 -P arp -Po REQUEST -Pms 1 -Ps 1 -Pmd 0 -Pd 4 
r -t 1.005039567 -Hs 4 -Hd -2 -Ni 4 -Nx 550.00 -Ny 100.00 -Nz 100.00 -Ne -1.000000 -Nl MAC -Nw --- -Ma 0 -Md ffffffff -Ms 1 -Mt 806 -P arp -Po REQUEST -Pms 1 -Ps 1 -Pmd 0 -Pd 4 
r -t 1.005039989 -Hs 0 -Hd -2 -Ni 0 -Nx 0.00 -Ny 200.00 -Nz 100.00 -Ne -1.000000 -Nl MAC -Nw --- -Ma 0 -Md ffffffff -Ms 1 -Mt 806 -P arp -Po REQUEST -Pms 1 -Ps 1 -Pmd 0 -Pd 4 
r -t 1.005039989 -Hs 2 -Hd -2 -Ni 2 -Nx 700.00 -Ny 200.00 -Nz 100.00 -Ne -1.000000 -Nl MAC -Nw --- -Ma 0 -Md ffffffff -Ms 1 -Mt 806 -P arp -Po REQUEST -Pms 1 -Ps 1 -Pmd 0 -Pd 4 
s -t 1.005209155 -Hs 3 -Hd -2 -Ni 3 -Nx 350.00 -Ny 100.00 -Nz 100.00 -Ne -1.000000 -Nl MAC -Nw --- -Ma 0 -Md ffffffff -Ms 3 -Mt 806 -P arp -Po REQUEST -Pms 3 -Ps 3 -Pmd 0 -Pd 4 
s -t 1.005209989 -Hs 2 -Hd -2 -Ni 2 -Nx 700.00 -Ny 200.00 -Nz 100.00 -Ne -1.000000 -Nl MAC -Nw --- -Ma 0 -Md ffffffff -Ms 2 -Mt 800 -Is 2.255 -Id -1.255 -It AODV -Il 106 -If 0 -Ii 0 -Iv 29 -P aodv -Pt 0x2 -Ph 2 -Pb 1 -Pd 4 -Pds 0 -Ps 3 -Pss 4 -Pc REQUEST 
d -t 1.005210590 -Hs 4 -Hd -2 -Ni 4 -Nx 550.00 -Ny 100.00 -Nz 100.00 -Ne -1.000000 -Nl MAC -Nw COL -Ma 0 -Md ffffffff -Ms 3 -Mt 806 -P arp -Po REQUEST -Pms 3 -Ps 3 -Pmd 0 -Pd 4 
s -t 1.005399867 -Hs 4 -Hd -2 -Ni 4 -Nx 550.00 -Ny 100.00 -Nz 100.00 -Ne -1.000000 -Nl RTR -Nw --- -Ma 0 -Md ffffffff -Ms 0 -Mt 800 -Is 4.255 -Id -1.255 -It AODV -Il 48 -If 0 -Ii 0 -Iv 29 -P aodv -Pt 0x2 -Ph 2 -Pb 1 -Pd 2 -Pds 0 -Ps 0 -Pss 4 -Pc REQUEST 
s -t 1.005400067 -Hs 1 -Hd -2 -Ni 1 -Nx 350.00 -Ny 200.00 -Nz 100.00 -Ne -1.000000 -Nl RTR -Nw --- -Ma 0 -Md ffffffff -Ms 3 -Mt 800 -Is 1.255 -Id -1.255 -It AODV -Il 48 -If 0 -Ii 0 -Iv 29 -P aodv -Pt 0x2 -Ph 2 -Pb 1 -Pd 4 -Pds 0 -Ps 3 -Pss 4 -Pc REQUEST 
r -t 1.005897489 -Hs 1 -Hd -2 -Ni 1 -Nx 350.00 -Ny 200.00 -Nz 100.00 -Ne -1.000000 -Nl MAC -Nw --- -Ma 0 -Md ffffffff -Ms 3 -Mt 806 -P arp -Po REQUEST -Pms 3 -Ps 3 -Pmd 0 -Pd 4 
r -t 1.005898369 -Hs 0 -Hd -2 -Ni 0 -Nx 0.00 -Ny 200.00 -Nz 100.00 -Ne -1.000000 -Nl MAC -Nw --- -Ma 0 -Md ffffffff -Ms 3 -Mt 806 -P arp -Po REQUEST -Pms 3 -Ps 3 -Pmd 0 -Pd 4 
d -t 1.006058590 -Hs 4 -Hd -2 -Ni 4 -Nx 550.00 -Ny 100.00 -Nz 100.00 -Ne -1.000000 -Nl MAC -Nw COL -Ma 0 -Md ffffffff -Ms 2 -Mt 800 -Is 2.255 -Id -1.255 -It AODV -Il 106 -If 0 -Ii 0 -Iv 29 -P aodv -Pt 0x2 -Ph 2 -Pb 1 -Pd 4 -Pds 0 -Ps 3 -Pss 4 -Pc REQUEST 
s -t 1.006307989 -Hs 2 -Hd -2 -Ni 2 -Nx 700.00 -Ny 200.00 -Nz 100.00 -Ne -1.000000 -Nl MAC -Nw --- -Ma 0 -Md ffffffff -Ms 2 -Mt 800 -Is 2.255 -Id -1.255 -It AODV -Il 106 -If 0 -Ii 0 -Iv 29 -P aodv -Pt 0x2 -Ph 2 -Pb 1 -Pd 1 -Pds 0 -Ps 4 -Pss 4 -Pc REQUEST 
r -t 1.007156590 -Hs 4 -Hd -2 -Ni 4 -Nx 550.00 -Ny 100.00 -Nz 100.00 -Ne -1.000000 -Nl MAC -Nw --- -Ma 0 -Md ffffffff -Ms 2 -Mt 800 -Is 2.255 -Id -1.255 -It AODV -Il 48 -If 0 -Ii 0 -Iv 29 -P aodv -Pt 0x2 -Ph 2 -Pb 1 -Pd 1 -Pds 0 -Ps 4 -Pss 4 -Pc REQUEST 
r -t 1.007157155 -Hs 1 -Hd -2 -Ni 1 -Nx 350.00 -Ny 200.00 -Nz 100.00 -Ne -1.000000 -Nl MAC -Nw --- -Ma 0 -Md ffffffff -Ms 2 -Mt 800 -Is 2.255 -Id -1.255 -It AODV -Il 48 -If 0 -Ii 0 -Iv 29 -P aodv -Pt 0x2 -Ph 2 -Pb 1 -Pd 1 -Pds 0 -Ps 4 -Pss 4 -Pc REQUEST 
r -t 1.007157202 -Hs 3 -Hd -2 -Ni 3 -Nx 350.00 -Ny 100.00 -Nz 100.00 -Ne -1.000000 -Nl MAC -Nw --- -Ma 0 -Md ffffffff -Ms 2 -Mt 800 -Is 2.255 -Id -1.255 -It AODV -Il 48 -If 0 -Ii 0 -Iv 29 -P aodv -Pt 0x2 -Ph 2 -Pb 1 -Pd 1 -Pds 0 -Ps 4 -Pss 4 -Pc REQUEST 
r -t 1.007181590 -Hs 4 -Hd -2 -Ni 4 -Nx 550.00 -Ny 100.00 -Nz 100.00 -Ne -1.000000 -Nl RTR -Nw --- -Ma 0 -Md ffffffff -Ms 2 -Mt 800 -Is 2.255 -Id -1.255 -It AODV -Il 48 -If 0 -Ii 0 -Iv 29 -P aodv -Pt 0x2 -Ph 2 -Pb 1 -Pd 1 -Pds 0 -Ps 4 -Pss 4 -Pc REQUEST 
r -t 1.007182155 -Hs 1 -Hd -2 -Ni 1 -Nx 350.00 -Ny 200.00 -Nz 100.00 -Ne -1.000000 -Nl RTR -Nw --- -Ma 0 -Md ffffffff -Ms 2 -Mt 800 -Is 2.255 -Id -1.255 -It AODV -Il 48 -If 0 -Ii 0 -Iv 29 -P aodv -Pt 0x2 -Ph 2 -Pb 1 -Pd 1 -Pds 0 -Ps 4 -Pss 4 -Pc REQUEST 
r -t 1.007182202 -Hs 3 -Hd -2 -Ni 3 -Nx 350.00 -Ny 100.00 -Nz 100.00 -Ne -1.000000 -Nl RTR -Nw --- -Ma 0 -Md ffffffff -Ms 2 -Mt 800 -Is 2.255 -Id -1.255 -It AODV -Il 48 -If 0 -Ii 0 -Iv 29 -P aodv -Pt 0x2 -Ph 2 -Pb 1 -Pd 1 -Pds 0 -Ps 4 -Pss 4 -Pc REQUEST 
s -t 1.007427155 -Hs 1 -Hd -2 -Ni 1 -Nx 350.00 -Ny 200.00 -Nz 100.00 -Ne -1.000000 -Nl MAC -Nw --- -Ma 0 -Md ffffffff -Ms 1 -Mt 800 -Is 1.255 -Id -1.255 -It AODV -Il 106 -If 0 -Ii 0 -Iv 29 -P aodv -Pt 0x2 -Ph 2 -Pb 1 -Pd 2 -Pds 0 -Ps 0 -Pss 4 -Pc REQUEST 
r -t 1.008275489 -Hs 3 -Hd -2 -Ni 3 -Nx 350.00 -Ny 100.00 -Nz 100.00 -Ne -1.000000 -Nl MAC -Nw --- -Ma 0 -Md ffffffff -Ms 1 -Mt 800 -Is 1.255 -Id -1.255 -It AODV -Il 48 -If 0 -Ii 0 -Iv 29 -P aodv -Pt 0x2 -Ph 2 -Pb 1 -Pd 2 -Pds 0 -Ps 0 -Pss 4 -Pc REQUEST 
r -t 1.008275901 -Hs 4 -Hd -2 -Ni 4 -Nx 550.00 -Ny 100.00 -Nz 100.00 -Ne -1.000000 -Nl MAC -Nw --- -Ma 0 -Md ffffffff -Ms 1 -Mt 800 -Is 1.255 -Id -1.255 -It AODV -Il 48 -If 0 -Ii 0 -Iv 29 -P aodv -Pt 0x2 -Ph 2 -Pb 1 -Pd 2 -Pds 0 -Ps 0 -Pss 4 -Pc REQUEST 
r -t 1.008276322 -Hs 0 -Hd -2 -Ni 0 -Nx 0.00 -Ny 200.00 -Nz 100.00 -Ne -1.000000 -Nl MAC -Nw --- -Ma 0 -Md ffffffff -Ms 1 -Mt 800 -Is 1.255 -Id -1.255 -It AODV -Il 48 -If 0 -Ii 0 -Iv 29 -P aodv -Pt 0x2 -Ph 2 -Pb 1 -Pd 2 -Pds 0 -Ps 0 -Pss 4 -Pc REQUEST 
r -t 1.008276322 -Hs 2 -Hd -2 -Ni 2 -Nx 700.00 -Ny 200.00 -Nz 100.00 -Ne -1.000000 -Nl MAC -Nw --- -Ma 0 -Md ffffffff -Ms 1 -Mt 800 -Is 1.255 -Id -1.255 -It AODV -Il 48 -If 0 -Ii 0 -Iv 29 -P aodv -Pt 0x2 -Ph 2 -Pb 1 -Pd 2 -Pds 0 -Ps 0 -Pss 4 -Pc REQUEST 
r -t 1.008300489 -Hs 3 -Hd -2 -Ni 3 -Nx 350.00 -Ny 100.00 -Nz 100.00 -Ne -1.000000 -Nl RTR -Nw --- -Ma 0 -Md ffffffff -Ms 1 -Mt 800 -Is 1.255 -Id -1.255 -It AODV -Il 48 -If 0 -Ii 0 -Iv 29 -P aodv -Pt 0x2 -Ph 2 -Pb 1 -Pd 2 -Pds 0 -Ps 0 -Pss 4 -Pc REQUEST 
r -t 1.008300901 -Hs 4 -Hd -2 -Ni 4 -Nx 550.00 -Ny 100.00 -Nz 100.00 -Ne -1.000000 -Nl RTR -Nw --- -Ma 0 -Md ffffffff -Ms 1 -Mt 800 -Is 1.255 -Id -1.255 -It AODV -Il 48 -If 0 -Ii 0 -Iv 29 -P aodv -Pt 0x2 -Ph 2 -Pb 1 -Pd 2 -Pds 0 -Ps 0 -Pss 4 -Pc REQUEST 
r -t 1.008301322 -Hs 0 -Hd -2 -Ni 0 -Nx 0.00 -Ny 200.00 -Nz 100.00 -Ne -1.000000 -Nl RTR -Nw --- -Ma 0 -Md ffffffff -Ms 1 -Mt 800 -Is 1.255 -Id -1.255 -It AODV -Il 48 -If 0 -Ii 0 -Iv 29 -P aodv -Pt 0x2 -Ph 2 -Pb 1 -Pd 2 -Pds 0 -Ps 0 -Pss 4 -Pc REQUEST 
r -t 1.008301322 -Hs 2 -Hd -2 -Ni 2 -Nx 700.00 -Ny 200.00 -Nz 100.00 -Ne -1.000000 -Nl RTR -Nw --- -Ma 0 -Md ffffffff -Ms 1 -Mt 800 -Is 1.255 -Id -1.255 -It AODV -Il 48 -If 0 -Ii 0 -Iv 29 -P aodv -Pt 0x2 -Ph 2 -Pb 1 -Pd 2 -Pds 0 -Ps 0 -Pss 4 -Pc REQUEST 
s -t 1.008301322 -Hs 2 -Hd 1 -Ni 2 -Nx 700.00 -Ny 200.00 -Nz 100.00 -Ne -1.000000 -Nl RTR -Nw --- -Ma 0 -Md 0 -Ms 0 -Mt 0 -Is 2.255 -Id 0.255 -It AODV -Il 44 -If 0 -Ii 0 -Iv 30 -P aodv -Pt 0x4 -Ph 1 -Pd 2 -Pds 4 -Pl 10.000000 -Pc REPLY 
s -t 1.008345155 -Hs 1 -Hd -2 -Ni 1 -Nx 350.00 -Ny 200.00 -Nz 100.00 -Ne -1.000000 -Nl MAC -Nw --- -Ma 0 -Md ffffffff -Ms 1 -Mt 800 -Is 1.255 -Id -1.255 -It AODV -Il 106 -If 0 -Ii 0 -Iv 29 -P aodv -Pt 0x2 -Ph 2 -Pb 1 -Pd 4 -Pds 0 -Ps 3 -Pss 4 -Pc REQUEST 
s -t 1.008697078 -Hs 3 -Hd -2 -Ni 3 -Nx 350.00 -Ny 100.00 -Nz 100.00 -Ne -1.000000 -Nl RTR -Nw --- -Ma 0 -Md ffffffff -Ms 0 -Mt 800 -Is 3.255 -Id -1.255 -It AODV -Il 48 -If 0 -Ii 0 -Iv 29 -P aodv -Pt 0x2 -Ph 2 -Pb 1 -Pd 2 -Pds 0 -Ps 0 -Pss 4 -Pc REQUEST 
s -t 1.008980768 -Hs 0 -Hd -2 -Ni 0 -Nx 0.00 -Ny 200.00 -Nz 100.00 -Ne -1.000000 -Nl RTR -Nw --- -Ma 0 -Md ffffffff -Ms 3 -Mt 800 -Is 0.255 -Id -1.255 -It AODV -Il 48 -If 0 -Ii 0 -Iv 29 -P aodv -Pt 0x2 -Ph 2 -Pb 1 -Pd 4 -Pds 0 -Ps 3 -Pss 4 -Pc REQUEST 
r -t 1.009193489 -Hs 3 -Hd -2 -Ni 3 -Nx 350.00 -Ny 100.00 -Nz 100.00 -Ne -1.000000 -Nl MAC -Nw --- -Ma 0 -Md ffffffff -Ms 1 -Mt 800 -Is 1.255 -Id -1.255 -It AODV -Il 48 -If 0 -Ii 0 -Iv 29 -P aodv -Pt 0x2 -Ph 2 -Pb 1 -Pd 4 -Pds 0 -Ps 3 -Pss 4 -Pc REQUEST 
r -t 1.009193901 -Hs 4 -Hd -2 -Ni 4 -Nx 550.00 -Ny 100.00 -Nz 100.00 -Ne -1.000000 -Nl MAC -Nw --- -Ma 0 -Md ffffffff -Ms 1 -Mt 800 -Is 1.255 -Id -1.255 -It AODV -Il 48 -If 0 -Ii 0 -Iv 29 -P aodv -Pt 0x2 -Ph 2 -Pb 1 -Pd 4 -Pds 0 -Ps 3 -Pss 4 -Pc REQUEST 
r -t 1.009194322 -Hs 0 -Hd -2 -Ni 0 -Nx 0.00 -Ny 200.00 -Nz 100.00 -Ne -1.000000 -Nl MAC -Nw --- -Ma 0 -Md ffffffff -Ms 1 -Mt 800 -Is 1.255 -Id -1.255 -It AODV -Il 48 -If 0 -Ii 0 -Iv 29 -P aodv -Pt 0x2 -Ph 2 -Pb 1 -Pd 4 -Pds 0 -Ps 3 -Pss 4 -Pc REQUEST 
r -t 1.009194322 -Hs 2 -Hd -2 -Ni 2 -Nx 700.00 -Ny 200.00 -Nz 100.00 -Ne -1.000000 -Nl MAC -Nw --- -Ma 0 -Md ffffffff -Ms 1 -Mt 800 -Is 1.255 -Id -1.255 -It AODV -Il 48 -If 0 -Ii 0 -Iv 29 -P aodv -Pt 0x2 -Ph 2 -Pb 1 -Pd 4 -Pds 0 -Ps 3 -Pss 4 -Pc REQUEST 
r -t 1.009218489 -Hs 3 -Hd -2 -Ni 3 -Nx 350.00 -Ny 100.00 -Nz 100.00 -Ne -1.000000 -Nl RTR -Nw --- -Ma 0 -Md ffffffff -Ms 1 -Mt 800 -Is 1.255 -Id -1.255 -It AODV -Il 48 -If 0 -Ii 0 -Iv 29 -P aodv -Pt 0x2 -Ph 2 -Pb 1 -Pd 4 -Pds 0 -Ps 3 -Pss 4 -Pc REQUEST 
r -t 1.009218901 -Hs 4 -Hd -2 -Ni 4 -Nx 550.00 -Ny 100.00 -Nz 100.00 -Ne -1.000000 -Nl RTR -Nw --- -Ma 0 -Md ffffffff -Ms 1 -Mt 800 -Is 1.255 -Id -1.255 -It AODV -Il 48 -If 0 -Ii 0 -Iv 29 -P aodv -Pt 0x2 -Ph 2 -Pb 1 -Pd 4 -Pds 0 -Ps 3 -Pss 4 -Pc REQUEST 
r -t 1.009219322 -Hs 0 -Hd -2 -Ni 0 -Nx 0.00 -Ny 200.00 -Nz 100.00 -Ne -1.000000 -Nl RTR -Nw --- -Ma 0 -Md ffffffff -Ms 1 -Mt 800 -Is 1.255 -Id -1.255 -It AODV -Il 48 -If 0 -Ii 0 -Iv 29 -P aodv -Pt 0x2 -Ph 2 -Pb 1 -Pd 4 -Pds 0 -Ps 3 -Pss 4 -Pc REQUEST 
r -t 1.009219322 -Hs 2 -Hd -2 -Ni 2 -Nx 700.00 -Ny 200.00 -Nz 100.00 -Ne -1.000000 -Nl RTR -Nw --- -Ma 0 -Md ffffffff -Ms 1 -Mt 800 -Is 1.255 -Id -1.255 -It AODV -Il 48 -If 0 -Ii 0 -Iv 29 -P aodv -Pt 0x2 -Ph 2 -Pb 1 -Pd 4 -Pds 0 -Ps 3 -Pss 4 -Pc REQUEST 
s -t 1.009343489 -Hs 3 -Hd -2 -Ni 3 -Nx 350.00 -Ny 100.00 -Nz 100.00 -Ne -1.000000 -Nl MAC -Nw --- -Ma 0 -Md ffffffff -Ms 3 -Mt 800 -Is 3.255 -Id -1.255 -It AODV -Il 106 -If 0 -Ii 0 -Iv 29 -P aodv -Pt 0x2 -Ph 2 -Pb 1 -Pd 1 -Pds 0 -Ps 4 -Pss 4 -Pc REQUEST 
s -t 1.009343901 -Hs 4 -Hd -2 -Ni 4 -Nx 550.00 -Ny 100.00 -Nz 100.00 -Ne -1.000000 -Nl MAC -Nw --- -Ma 52e -Md 1 -Ms 4 -Mt 0 
d -t 1.009344646 -Hs 1 -Hd -2 -Ni 1 -Nx 350.00 -Ny 200.00 -Nz 100.00 -Ne -1.000000 -Nl MAC -Nw COL -Ma 52e -Md 1 -Ms 4 -Mt 0 
s -t 1.009709617 -Hs 0 -Hd -2 -Ni 0 -Nx 0.00 -Ny 200.00 -Nz 100.00 -Ne -1.000000 -Nl RTR -Nw --- -Ma 0 -Md ffffffff -Ms 4 -Mt 800 -Is 0.255 -Id -1.255 -It AODV -Il 48 -If 0 -Ii 0 -Iv 29 -P aodv -Pt 0x2 -Ph 2 -Pb 1 -Pd 1 -Pds 0 -Ps 4 -Pss 4 -Pc REQUEST 
d -t 1.010191822 -Hs 1 -Hd -2 -Ni 1 -Nx 350.00 -Ny 200.00 -Nz 100.00 -Ne -1.000000 -Nl MAC -Nw COL -Ma 0 -Md ffffffff -Ms 3 -Mt 800 -Is 3.255 -Id -1.255 -It AODV -Il 106 -If 0 -Ii 0 -Iv 29 -P aodv -Pt 0x2 -Ph 2 -Pb 1 -Pd 1 -Pds 0 -Ps 4 -Pss 4 -Pc REQUEST 
d -t 1.010192702 -Hs 0 -Hd -2 -Ni 0 -Nx 0.00 -Ny 200.00 -Nz 100.00 -Ne -1.000000 -Nl MAC -Nw COL -Ma 0 -Md ffffffff -Ms 3 -Mt 800 -Is 3.255 -Id -1.255 -It AODV -Il 106 -If 0 -Ii 0 -Iv 29 -P aodv -Pt 0x2 -Ph 2 -Pb 1 -Pd 1 -Pds 0 -Ps 4 -Pss 4 -Pc REQUEST 
d -t 1.010192702 -Hs 2 -Hd -2 -Ni 2 -Nx 700.00 -Ny 200.00 -Nz 100.00 -Ne -1.000000 -Nl MAC -Nw COL -Ma 0 -Md ffffffff -Ms 3 -Mt 800 -Is 3.255 -Id -1.255 -It AODV -Il 106 -If 0 -Ii 0 -Iv 29 -P aodv -Pt 0x2 -Ph 2 -Pb 1 -Pd 1 -Pds 0 -Ps 4 -Pss 4 -Pc REQUEST 
s -t 1.010641489 -Hs 3 -Hd -2 -Ni 3 -Nx 350.00 -Ny 100.00 -Nz 100.00 -Ne -1.000000 -Nl MAC -Nw --- -Ma 0 -Md ffffffff -Ms 3 -Mt 800 -Is 3.255 -Id -1.255 -It AODV -Il 106 -If 0 -Ii 0 -Iv 29 -P aodv -Pt 0x2 -Ph 2 -Pb 1 -Pd 2 -Pds 0 -Ps 0 -Pss 4 -Pc REQUEST 
r -t 1.011489822 -Hs 1 -Hd -2 -Ni 1 -Nx 350.00 -Ny 200.00 -Nz 100.00 -Ne -1.000000 -Nl MAC -Nw --- -Ma 0 -Md ffffffff -Ms 3 -Mt 800 -Is 3.255 -Id -1.255 -It AODV -Il 48 -If 0 -Ii 0 -Iv 29 -P aodv -Pt 0x2 -Ph 2 -Pb 1 -Pd 2 -Pds 0 -Ps 0 -Pss 4 -Pc REQUEST 
r -t 1.011490155 -Hs 4 -Hd -2 -Ni 4 -Nx 550.00 -Ny 100.00 -Nz 100.00 -Ne -1.000000 -Nl MAC -Nw --- -Ma 0 -Md ffffffff -Ms 3 -Mt 800 -Is 3.255 -Id -1.255 -It AODV -Il 48 -If 0 -Ii 0 -Iv 29 -P aodv -Pt 0x2 -Ph 2 -Pb 1 -Pd 2 -Pds 0 -Ps 0 -Pss 4 -Pc REQUEST 
r -t 1.011490702 -Hs 0 -Hd -2 -Ni 0 -Nx 0.00 -Ny 200.00 -Nz 100.00 -Ne -1.000000 -Nl MAC -Nw --- -Ma 0 -Md ffffffff -Ms 3 -Mt 800 -Is 3.255 -Id -1.255 -It AODV -Il 48 -If 0 -Ii 0 -Iv 29 -P aodv -Pt 0x2 -Ph 2 -Pb 1 -Pd 2 -Pds 0 -Ps 0 -Pss 4 -Pc REQUEST 
r -t 1.011490702 -Hs 2 -Hd -2 -Ni 2 -Nx 700.00 -Ny 200.00 -Nz 100.00 -Ne -1.000000 -Nl MAC -Nw --- -Ma 0 -Md ffffffff -Ms 3 -Mt 800 -Is 3.255 -Id -1.255 -It AODV -Il 48 -If 0 -Ii 0 -Iv 29 -P aodv -Pt 0x2 -Ph 2 -Pb 1 -Pd 2 -Pds 0 -Ps 0 -Pss 4 -Pc REQUEST 
r -t 1.011514822 -Hs 1 -Hd -2 -Ni 1 -Nx 350.00 -Ny 200.00 -Nz 100.00 -Ne -1.000000 -Nl RTR -Nw --- -Ma 0 -Md ffffffff -Ms 3 -Mt 800 -Is 3.255 -Id -1.255 -It AODV -Il 48 -If 0 -Ii 0 -Iv 29 -P aodv -Pt 0x2 -Ph 2 -Pb 1 -Pd 2 -Pds 0 -Ps 0 -Pss 4 -Pc REQUEST 
r -t 1.011515155 -Hs 4 -Hd -2 -Ni 4 -Nx 550.00 -Ny 100.00 -Nz 100.00 -Ne -1.000000 -Nl RTR -Nw --- -Ma 0 -Md ffffffff -Ms 3 -Mt 800 -Is 3.255 -Id -1.255 -It AODV -Il 48 -If 0 -Ii 0 -Iv 29 -P aodv -Pt 0x2 -Ph 2 -Pb 1 -Pd 2 -Pds 0 -Ps 0 -Pss 4 -Pc REQUEST 
r -t 1.011515702 -Hs 0 -Hd -2 -Ni 0 -Nx 0.00 -Ny 200.00 -Nz 100.00 -Ne -1.000000 -Nl RTR -Nw --- -Ma 0 -Md ffffffff -Ms 3 -Mt 800 -Is 3.255 -Id -1.255 -It AODV -Il 48 -If 0 -Ii 0 -Iv 29 -P aodv -Pt 0x2 -Ph 2 -Pb 1 -Pd 2 -Pds 0 -Ps 0 -Pss 4 -Pc REQUEST 
r -t 1.011515702 -Hs 2 -Hd -2 -Ni 2 -Nx 700.00 -Ny 200.00 -Nz 100.00 -Ne -1.000000 -Nl RTR -Nw --- -Ma 0 -Md ffffffff -Ms 3 -Mt 800 -Is 3.255 -Id -1.255 -It AODV -Il 48 -If 0 -Ii 0 -Iv 29 -P aodv -Pt 0x2 -Ph 2 -Pb 1 -Pd 2 -Pds 0 -Ps 0 -Pss 4 -Pc REQUEST 
s -t 1.011599822 -Hs 1 -Hd -2 -Ni 1 -Nx 350.00 -Ny 200.00 -Nz 100.00 -Ne -1.000000 -Nl MAC -Nw --- -Ma 5ae -Md 4 -Ms 1 -Mt 0 
r -t 1.011952567 -Hs 4 -Hd -2 -Ni 4 -Nx 550.00 -Ny 100.00 -Nz 100.00 -Ne -1.000000 -Nl MAC -Nw --- -Ma 5ae -Md 4 -Ms 1 -Mt 0 
s -t 1.011962567 -Hs 4 -Hd -2 -Ni 4 -Nx 550.00 -Ny 100.00 -Nz 100.00 -Ne -1.000000 -Nl MAC -Nw --- -Ma 474 -Md 1 -Ms 0 -Mt 0 
r -t 1.012267313 -Hs 1 -Hd -2 -Ni 1 -Nx 350.00 -Ny 200.00 -Nz 100.00 -Ne -1.000000 -Nl MAC -Nw --- -Ma 474 -Md 1 -Ms 0 -Mt 0 
s -t 1.012277313 -Hs 1 -Hd 4 -Ni 1 -Nx 350.00 -Ny 200.00 -Nz 100.00 -Ne -1.000000 -Nl MAC -Nw --- -Ma 13a -Md 4 -Ms 1 -Mt 800 -Is 1.255 -Id 4.255 -It AODV -Il 102 -If 0 -Ii 0 -Iv 30 -P aodv -Pt 0x4 -Ph 1 -Pd 1 -Pds 4 -Pl 10.000000 -Pc REPLY 
r -t 1.013094058 -Hs 4 -Hd 4 -Ni 4 -Nx 550.00 -Ny 100.00 -Nz 100.00 -Ne -1.000000 -Nl MAC -Nw --- -Ma 13a -Md 4 -Ms 1 -Mt 800 -Is 1.255 -Id 4.255 -It AODV -Il 44 -If 0 -Ii 0 -Iv 30 -P aodv -Pt 0x4 -Ph 1 -Pd 1 -Pds 4 -Pl 10.000000 -Pc REPLY 
s -t 1.013104058 -Hs 4 -Hd -2 -Ni 4 -Nx 550.00 -Ny 100.00 -Nz 100.00 -Ne -1.000000 -Nl MAC -Nw --- -Ma 0 -Md 1 -Ms 0 -Mt 0 
r -t 1.013119058 -Hs 4 -Hd 4 -Ni 4 -Nx 550.00 -Ny 100.00 -Nz 100.00 -Ne -1.000000 -Nl RTR -Nw --- -Ma 13a -Md 4 -Ms 1 -Mt 800 -Is 1.255 -Id 4.255 -It AODV -Il 44 -If 0 -Ii 0 -Iv 30 -P aodv -Pt 0x4 -Ph 1 -Pd 1 -Pds 4 -Pl 10.000000 -Pc REPLY 
s -t 1.013119058 -Hs 4 -Hd 1 -Ni 4 -Nx 550.00 -Ny 100.00 -Nz 100.00 -Ne -1.000000 -Nl RTR -Nw --- -Ma 0 -Md 0 -Ms 0 -Mt 0 -Is 4.0 -Id 1.0 -It cbr -Il 532 -If 0 -Ii 2 -Iv 30 -Pn cbr -Pi 0 -Pf 0 -Po 0 
r -t 1.013408804 -Hs 1 -Hd -2 -Ni 1 -Nx 350.00 -Ny 200.00 -Nz 100.00 -Ne -1.000000 -Nl MAC -Nw --- -Ma 0 -Md 1 -Ms 0 -Mt 0 
s -t 1.013518659 -Hs 2 -Hd -2 -Ni 2 -Nx 700.00 -Ny 200.00 -Nz 100.00 -Ne -1.000000 -Nl MAC -Nw --- -Ma 5ae -Md 1 -Ms 2 -Mt 0 
s -t 1.013719922 -Hs 0 -Hd -2 -Ni 0 -Nx 0.00 -Ny 200.00 -Nz 100.00 -Ne -1.000000 -Nl MAC -Nw --- -Ma 0 -Md ffffffff -Ms 0 -Mt 800 -Is 0.255 -Id -1.255 -It AODV -Il 106 -If 0 -Ii 0 -Iv 29 -P aodv -Pt 0x2 -Ph 2 -Pb 1 -Pd 4 -Pds 0 -Ps 3 -Pss 4 -Pc REQUEST 
d -t 1.013721088 -Hs 1 -Hd -2 -Ni 1 -Nx 350.00 -Ny 200.00 -Nz 100.00 -Ne -1.000000 -Nl MAC -Nw COL -Ma 5ae -Md 1 -Ms 2 -Mt 0 
d -t 1.014569088 -Hs 1 -Hd -2 -Ni 1 -Nx 350.00 -Ny 200.00 -Nz 100.00 -Ne -1.000000 -Nl MAC -Nw COL -Ma 0 -Md ffffffff -Ms 0 -Mt 800 -Is 0.255 -Id -1.255 -It AODV -Il 106 -If 0 -Ii 0 -Iv 29 -P aodv -Pt 0x2 -Ph 2 -Pb 1 -Pd 4 -Pds 0 -Ps 3 -Pss 4 -Pc REQUEST 
d -t 1.014569135 -Hs 3 -Hd -2 -Ni 3 -Nx 350.00 -Ny 100.00 -Nz 100.00 -Ne -1.000000 -Nl MAC -Nw COL -Ma 0 -Md ffffffff -Ms 0 -Mt 800 -Is 0.255 -Id -1.255 -It AODV -Il 106 -If 0 -Ii 0 -Iv 29 -P aodv -Pt 0x2 -Ph 2 -Pb 1 -Pd 4 -Pds 0 -Ps 3 -Pss 4 -Pc REQUEST 
d -t 1.014569785 -Hs 4 -Hd -2 -Ni 4 -Nx 550.00 -Ny 100.00 -Nz 100.00 -Ne -1.000000 -Nl MAC -Nw COL -Ma 0 -Md ffffffff -Ms 0 -Mt 800 -Is 0.255 -Id -1.255 -It AODV -Il 106 -If 0 -Ii 0 -Iv 29 -P aodv -Pt 0x2 -Ph 2 -Pb 1 -Pd 4 -Pds 0 -Ps 3 -Pss 4 -Pc REQUEST 
s -t 1.014917922 -Hs 0 -Hd -2 -Ni 0 -Nx 0.00 -Ny 200.00 -Nz 100.00 -Ne -1.000000 -Nl MAC -Nw --- -Ma 0 -Md ffffffff -Ms 0 -Mt 800 -Is 0.255 -Id -1.255 -It AODV -Il 106 -If 0 -Ii 0 -Iv 29 -P aodv -Pt 0x2 -Ph 2 -Pb 1 -Pd 1 -Pds 0 -Ps 4 -Pss 4 -Pc REQUEST 
s -t 1.015258659 -Hs 2 -Hd -2 -Ni 2 -Nx 700.00 -Ny 200.00 -Nz 100.00 -Ne -1.000000 -Nl MAC -Nw --- -Ma 5ae -Md 1 -Ms 2 -Mt 0 
d -t 1.015259826 -Hs 1 -Hd -2 -Ni 1 -Nx 350.00 -Ny 200.00 -Nz 100.00 -Ne -1.000000 -Nl MAC -Nw COL -Ma 5ae -Md 1 -Ms 2 -Mt 0 
d -t 1.015767088 -Hs 1 -Hd -2 -Ni 1 -Nx 350.00 -Ny 200.00 -Nz 100.00 -Ne -1.000000 -Nl MAC -Nw COL -Ma 0 -Md ffffffff -Ms 0 -Mt 800 -Is 0.255 -Id -1.255 -It AODV -Il 106 -If 0 -Ii 0 -Iv 29 -P aodv -Pt 0x2 -Ph 2 -Pb 1 -Pd 1 -Pds 0 -Ps 4 -Pss 4 -Pc REQUEST 
d -t 1.015767135 -Hs 3 -Hd -2 -Ni 3 -Nx 350.00 -Ny 100.00 -Nz 100.00 -Ne -1.000000 -Nl MAC -Nw COL -Ma 0 -Md ffffffff -Ms 0 -Mt 800 -Is 0.255 -Id -1.255 -It AODV -Il 106 -If 0 -Ii 0 -Iv 29 -P aodv -Pt 0x2 -Ph 2 -Pb 1 -Pd 1 -Pds 0 -Ps 4 -Pss 4 -Pc REQUEST 
d -t 1.015767785 -Hs 4 -Hd -2 -Ni 4 -Nx 550.00 -Ny 100.00 -Nz 100.00 -Ne -1.000000 -Nl MAC -Nw COL -Ma 0 -Md ffffffff -Ms 0 -Mt 800 -Is 0.255 -Id -1.255 -It AODV -Il 106 -If 0 -Ii 0 -Iv 29 -P aodv -Pt 0x2 -Ph 2 -Pb 1 -Pd 1 -Pds 0 -Ps 4 -Pss 4 -Pc REQUEST 
s -t 1.016601135 -Hs 3 -Hd -2 -Ni 3 -Nx 350.00 -Ny 100.00 -Nz 100.00 -Ne -1.000000 -Nl MAC -Nw --- -Ma 14ee -Md 4 -Ms 3 -Mt 0 
r -t 1.016953802 -Hs 4 -Hd -2 -Ni 4 -Nx 550.00 -Ny 100.00 -Nz 100.00 -Ne -1.000000 -Nl MAC -Nw --- -Ma 14ee -Md 4 -Ms 3 -Mt 0 
s -t 1.016963802 -Hs 4 -Hd -2 -Ni 4 -Nx 550.00 -Ny 100.00 -Nz 100.00 -Ne -1.000000 -Nl MAC -Nw --- -Ma 13b4 -Md 3 -Ms 0 -Mt 0 
r -t 1.017268468 -Hs 3 -Hd -2 -Ni 3 -Nx 350.00 -Ny 100.00 -Nz 100.00 -Ne -1.000000 -Nl MAC -Nw --- -Ma 13b4 -Md 3 -Ms 0 -Mt 0 
s -t 1.017278468 -Hs 3 -Hd 4 -Ni 3 -Nx 350.00 -Ny 100.00 -Nz 100.00 -Ne -1.000000 -Nl MAC -Nw --- -Ma 13a -Md 4 -Ms 3 -Mt 800 -Is 3.0 -Id 4.1 -It cbr -Il 590 -If 2 -Ii 1 -Iv 30 -Pn cbr -Pi 0 -Pf 0 -Po 0 
r -t 1.021999135 -Hs 4 -Hd 4 -Ni 4 -Nx 550.00 -Ny 100.00 -Nz 100.00 -Ne -1.000000 -Nl MAC -Nw --- -Ma 13a -Md 4 -Ms 3 -Mt 800 -Is 3.0 -Id 4.1 -It cbr -Il 532 -If 2 -Ii 1 -Iv 30 -Pn cbr -Pi 0 -Pf 1 -Po 0 
s -t 1.022009135 -Hs 4 -Hd -2 -Ni 4 -Nx 550.00 -Ny 100.00 -Nz 100.00 -Ne -1.000000 -Nl MAC -Nw --- -Ma 0 -Md 3 -Ms 0 -Mt 0 
r -t 1.022024135 -Hs 4 -Hd 4 -Ni 4 -Nx 550.00 -Ny 100.00 -Nz 100.00 -Ne -1.000000 -Nl AGT -Nw --- -Ma 13a -Md 4 -Ms 3 -Mt 800 -Is 3.0 -Id 4.1 -It cbr -Il 532 -If 2 -Ii 1 -Iv 30 -Pn cbr -Pi 0 -Pf 1 -Po 0 