s -t 1.000000000 -Hs 0 -Hd -2 -Ni 0 -Nx 0.00 -Ny 200.00 -Nz 100.00 -Ne -1.000000 -Nl AGT -Nw --- -Ma 0 -Md 0 -Ms 0 -Mt 0 -Is 0.0 -Id 2.0 -It cbr -Il 512 -If 0 -Ii 0 -Iv 32 -Pn cbr -Pi 0 -Pf 0 -Po 0 
r -t 1.000000000 -Hs 0 -Hd -2 -Ni 0 -Nx 0.00 -Ny 200.00 -Nz 100.00 -Ne -1.000000 -Nl RTR -Nw --- -Ma 0 -Md 0 -Ms 0 -Mt 0 -Is 0.0 -Id 2.0 -It cbr -Il 512 -If 0 -Ii 0 -Iv 32 -Pn cbr -Pi 0 -Pf 0 -Po 0 
s -t 1.000000000 -Hs 3 -Hd -2 -Ni 3 -Nx 350.00 -Ny 100.00 -Nz 100.00 -Ne -1.000000 -Nl AGT -Nw --- -Ma 0 -Md 0 -Ms 0 -Mt 0 -Is 3.0 -Id 1.0 -It cbr -Il 512 -If 2 -Ii 1 -Iv 32 -Pn cbr -Pi 0 -Pf 0 -Po 0 
r -t 1.000000000 -Hs 3 -Hd -2 -Ni 3 -Nx 350.00 -Ny 100.00 -Nz 100.00 -Ne -1.000000 -Nl RTR -Nw --- -Ma 0 -Md 0 -Ms 0 -Mt 0 -Is 3.0 -Id 1.0 -It cbr -Il 512 -If 2 -Ii 1 -Iv 32 -Pn cbr -Pi 0 -Pf 0 -Po 0 
s -t 1.000000000 -Hs 0 -Hd -2 -Ni 0 -Nx 0.00 -Ny 200.00 -Nz 100.00 -Ne -1.000000 -Nl RTR -Nw --- -Ma 0 -Md 0 -Ms 0 -Mt 0 -Is 0.255 -Id -1.255 -It AODV -Il 48 -If 0 -Ii 0 -Iv 30 -P aodv -Pt 0x2 -Ph 1 -Pb 1 -Pd 2 -Pds 0 -Ps 0 -Pss 4 -Pc REQUEST 
s -t 1.000000000 -Hs 3 -Hd -2 -Ni 3 -Nx 350.00 -Ny 100.00 -Nz 100.00 -Ne -1.000000 -Nl RTR -Nw --- -Ma 0 -Md 0 -Ms 0 -Mt 0 -Is 3.255 -Id -1.255 -It AODV -Il 48 -If 0 -Ii 0 -Iv 30 -P aodv -Pt 0x2 -Ph 1 -Pb 1 -Pd 1 -Pds 0 -Ps 3 -Pss 4 -Pc REQUEST 
s -t 1.000115000 -Hs 3 -Hd -2 -Ni 3 -Nx 350.00 -Ny 100.00 -Nz 100.00 -Ne -1.000000 -Nl MAC -Nw --- -Ma 0 -Md ffffffff -Ms 3 -Mt 800 -Is 3.255 -Id -1.255 -It AODV -Il 106 -If 0 -Ii 0 -Iv 30 -P aodv -Pt 0x2 -Ph 1 -Pb 1 -Pd 1 -Pds 0 -Ps 3 -Pss 4 -Pc REQUEST 
r -t 1.000963333 -Hs 1 -Hd -2 -Ni 1 -Nx 350.00 -Ny 200.00 -Nz 100.00 -Ne -1.000000 -Nl MAC -Nw --- -Ma 0 -Md ffffffff -Ms 3 -Mt 800 -Is 3.255 -Id -1.255 -It AODV -Il 48 -If 0 -Ii 0 -Iv 30 -P aodv -Pt 0x2 -Ph 1 -Pb 1 -Pd 1 -Pds 0 -Ps 3 -Pss 4 -Pc REQUEST 
r -t 1.000964213 -Hs 0 -Hd -2 -Ni 0 -Nx 0.00 -Ny 200.00 -Nz 100.00 -Ne -1.000000 -Nl MAC -Nw --- -Ma 0 -Md ffffffff -Ms 3 -Mt 800 -Is 3.255 -Id -1.255 -It AODV -Il 48 -If 0 -Ii 0 -Iv 30 -P aodv -Pt 0x2 -Ph 1 -Pb 1 -Pd 1 -Pds 0 -Ps 3 -Pss 4 -Pc REQUEST 
r -t 1.000964213 -Hs 2 -Hd -2 -Ni 2 -Nx 700.00 -Ny 200.00 -Nz 100.00 -Ne -1.000000 -Nl MAC -Nw --- -Ma 0 -Md ffffffff -Ms 3 -Mt 800 -Is 3.255 -Id -1.255 -It AODV -Il 48 -If 0 -Ii 0 -Iv 30 -P aodv -Pt 0x2 -Ph 1 -Pb 1 -Pd 1 -Pds 0 -Ps 3 -Pss 4 -Pc REQUEST 
r -t 1.000988333 -Hs 1 -Hd -2 -Ni 1 -Nx 350.00 -Ny 200.00 -Nz 100.00 -Ne -1.000000 -Nl RTR -Nw --- -Ma 0 -Md ffffffff -Ms 3 -Mt 800 -Is 3.255 -Id -1.255 -It AODV -Il 48 -If 0 -Ii 0 -Iv 30 -P aodv -Pt 0x2 -Ph 1 -Pb 1 -Pd 1 -Pds 0 -Ps 3 -Pss 4 -Pc REQUEST 
s -t 1.000988333 -Hs 1 -Hd 3 -Ni 1 -Nx 350.00 -Ny 200.00 -Nz 100.00 -Ne -1.000000 -Nl RTR -Nw --- -Ma 0 -Md 0 -Ms 0 -Mt 0 -Is 1.255 -Id 3.255 -It AODV -Il 44 -If 0 -Ii 0 -Iv 30 -P aodv -Pt 0x4 -Ph 1 -Pd 1 -Pds 4 -Pl 10.000000 -Pc REPLY 
r -t 1.000989213 -Hs 0 -Hd -2 -Ni 0 -Nx 0.00 -Ny 200.00 -Nz 100.00 -Ne -1.000000 -Nl RTR -Nw --- -Ma 0 -Md ffffffff -Ms 3 -Mt 800 -Is 3.255 -Id -1.255 -It AODV -Il 48 -If 0 -Ii 0 -Iv 30 -P aodv -Pt 0x2 -Ph 1 -Pb 1 -Pd 1 -Pds 0 -Ps 3 -Pss 4 -Pc REQUEST 
r -t 1.000989213 -Hs 2 -Hd -2 -Ni 2 -Nx 700.00 -Ny 200.00 -Nz 100.00 -Ne -1.000000 -Nl RTR -Nw --- -Ma 0 -Md ffffffff -Ms 3 -Mt 800 -Is 3.255 -Id -1.255 -It AODV -Il 48 -If 0 -Ii 0 -Iv 30 -P aodv -Pt 0x2 -Ph 1 -Pb 1 -Pd 1 -Pds 0 -Ps 3 -Pss 4 -Pc REQUEST 
s -t 1.001043333 -Hs 1 -Hd -2 -Ni 1 -Nx 350.00 -Ny 200.00 -Nz 100.00 -Ne -1.000000 -Nl MAC -Nw --- -Ma 0 -Md ffffffff -Ms 1 -Mt 806 -P arp -Po REQUEST -Pms 1 -Ps 1 -Pmd 0 -Pd 3 
r -t 1.001731667 -Hs 3 -Hd -2 -Ni 3 -Nx 350.00 -Ny 100.00 -Nz 100.00 -Ne -1.000000 -Nl MAC -Nw --- -Ma 0 -Md ffffffff -Ms 1 -Mt 806 -P arp -Po REQUEST -Pms 1 -Ps 1 -Pmd 0 -Pd 3 
r -t 1.001732500 -Hs 0 -Hd -2 -Ni 0 -Nx 0.00 -Ny 200.00 -Nz 100.00 -Ne -1.000000 -Nl MAC -Nw --- -Ma 0 -Md ffffffff -Ms 1 -Mt 806 -P arp -Po REQUEST -Pms 1 -Ps 1 -Pmd 0 -Pd 3 
r -t 1.001732500 -Hs 2 -Hd -2 -Ni 2 -Nx 700.00 -Ny 200.00 -Nz 100.00 -Ne -1.000000 -Nl MAC -Nw --- -Ma 0 -Md ffffffff -Ms 1 -Mt 806 -P arp -Po REQUEST -Pms 1 -Ps 1 -Pmd 0 -Pd 3 
s -t 1.001870440 -Hs 0 -Hd -2 -Ni 0 -Nx 0.00 -Ny 200.00 -Nz 100.00 -Ne -1.000000 -Nl RTR -Nw --- -Ma 0 -Md ffffffff -Ms 3 -Mt 800 -Is 0.255 -Id -1.255 -It AODV -Il 48 -If 0 -Ii 0 -Iv 29 -P aodv -Pt 0x2 -Ph 2 -Pb 1 -Pd 1 -Pds 0 -Ps 3 -Pss 4 -Pc REQUEST 
s -t 1.002182500 -Hs 0 -Hd -2 -Ni 0 -Nx 0.00 -Ny 200.00 -Nz 100.00 -Ne -1.000000 -Nl MAC -Nw --- -Ma 0 -Md ffffffff -Ms 0 -Mt 800 -Is 0.255 -Id -1.255 -It AODV -Il 106 -If 0 -Ii 0 -Iv 30 -P aodv -Pt 0x2 -Ph 1 -Pb 1 -Pd 2 -Pds 0 -Ps 0 -Pss 4 -Pc REQUEST 
r -t 1.003031667 -Hs 1 -Hd -2 -Ni 1 -Nx 350.00 -Ny 200.00 -Nz 100.00 -Ne -1.000000 -Nl MAC -Nw --- -Ma 0 -Md ffffffff -Ms 0 -Mt 800 -Is 0.255 -Id -1.255 -It AODV -Il 48 -If 0 -Ii 0 -Iv 30 -P aodv -Pt 0x2 -Ph 1 -Pb 1 -Pd 2 -Pds 0 -Ps 0 -Pss 4 -Pc REQUEST 
r -t 1.003031713 -Hs 3 -Hd -2 -Ni 3 -Nx 350.00 -Ny 100.00 -Nz 100.00 -Ne -1.000000 -Nl MAC -Nw --- -Ma 0 -Md ffffffff -Ms 0 -Mt 800 -Is 0.255 -Id -1.255 -It AODV -Il 48 -If 0 -Ii 0 -Iv 30 -P aodv -Pt 0x2 -Ph 1 -Pb 1 -Pd 2 -Pds 0 -Ps 0 -Pss 4 -Pc REQUEST 
r -t 1.003056667 -Hs 1 -Hd -2 -Ni 1 -Nx 350.00 -Ny 200.00 -Nz 100.00 -Ne -1.000000 -Nl RTR -Nw --- -Ma 0 -Md ffffffff -Ms 0 -Mt 800 -Is 0.255 -Id -1.255 -It AODV -Il 48 -If 0 -Ii 0 -Iv 30 -P aodv -Pt 0x2 -Ph 1 -Pb 1 -Pd 2 -Pds 0 -Ps 0 -Pss 4 -Pc REQUEST 
r -t 1.003056713 -Hs 3 -Hd -2 -Ni 3 -Nx 350.00 -Ny 100.00 -Nz 100.00 -Ne -1.000000 -Nl RTR -Nw --- -Ma 0 -Md ffffffff -Ms 0 -Mt 800 -Is 0.255 -Id -1.255 -It AODV -Il 48 -If 0 -Ii 0 -Iv 30 -P aodv -Pt 0x2 -Ph 1 -Pb 1 -Pd 2 -Pds 0 -Ps 0 -Pss 4 -Pc REQUEST 
s -t 1.003221713 -Hs 3 -Hd -2 -Ni 3 -Nx 350.00 -Ny 100.00 -Nz 100.00 -Ne -1.000000 -Nl MAC -Nw --- -Ma 52e -Md 1 -Ms 3 -Mt 0 
r -t 1.003574047 -Hs 1 -Hd -2 -Ni 1 -Nx 350.00 -Ny 200.00 -Nz 100.00 -Ne -1.000000 -Nl MAC -Nw --- -Ma 52e -Md 1 -Ms 3 -Mt 0 
s -t 1.003584047 -Hs 1 -Hd -2 -Ni 1 -Nx 350.00 -Ny 200.00 -Nz 100.00 -Ne -1.000000 -Nl MAC -Nw --- -Ma 3f4 -Md 3 -Ms 0 -Mt 0 
r -t 1.003888380 -Hs 3 -Hd -2 -Ni 3 -Nx 350.00 -Ny 100.00 -Nz 100.00 -Ne -1.000000 -Nl MAC -Nw --- -Ma 3f4 -Md 3 -Ms 0 -Mt 0 
s -t 1.003898380 -Hs 3 -Hd -2 -Ni 3 -Nx 350.00 -Ny 100.00 -Nz 100.00 -Ne -1.000000 -Nl MAC -Nw --- -Ma 13a -Md 1 -Ms 3 -Mt 806 -P arp -Po REPLY -Pms 3 -Ps 3 -Pmd 1 -Pd 1 
r -t 1.004586713 -Hs 1 -Hd -2 -Ni 1 -Nx 350.00 -Ny 200.00 -Nz 100.00 -Ne -1.000000 -Nl MAC -Nw --- -Ma 13a -Md 1 -Ms 3 -Mt 806 -P arp -Po REPLY -Pms 3 -Ps 3 -Pmd 1 -Pd 1 
s -t 1.004596713 -Hs 1 -Hd -2 -Ni 1 -Nx 350.00 -Ny 200.00 -Nz 100.00 -Ne -1.000000 -Nl MAC -Nw --- -Ma 0 -Md 3 -Ms 0 -Mt 0 
r -t 1.004901047 -Hs 3 -Hd -2 -Ni 3 -Nx 350.00 -Ny 100.00 -Nz 100.00 -Ne -1.000000 -Nl MAC -Nw --- -Ma 0 -Md 3 -Ms 0 -Mt 0 
s -t 1.005011880 -Hs 0 -Hd -2 -Ni 0 -Nx 0.00 -Ny 200.00 -Nz 100.00 -Ne -1.000000 -Nl MAC -Nw --- -Ma 0 -Md ffffffff -Ms 0 -Mt 800 -Is 0.255 -Id -1.255 -It AODV -Il 106 -If 0 -Ii 0 -Iv 29 -P aodv -Pt 0x2 -Ph 2 -Pb 1 -Pd 1 -Pds 0 -Ps 3 -Pss 4 -Pc REQUEST 
s -t 1.005400947 -Hs 2 -Hd -2 -Ni 2 -Nx 700.00 -Ny 200.00 -Nz 100.00 -Ne -1.000000 -Nl RTR -Nw --- -Ma 0 -Md ffffffff -Ms 3 -Mt 800 -Is 2.255 -Id -1.255 -It AODV -Il 48 -If 0 -Ii 0 -Iv 29 -P aodv -Pt 0x2 -Ph 2 -Pb 1 -Pd 1 -Pds 0 -Ps 3 -Pss 4 -Pc REQUEST 
s -t 1.005402684 -Hs 1 -Hd -2 -Ni 1 -Nx 350.00 -Ny 200.00 -Nz 100.00 -Ne -1.000000 -Nl RTR -Nw --- -Ma 0 -Md ffffffff -Ms 0 -Mt 800 -Is 1.255 -Id -1.255 -It AODV -Il 48 -If 0 -Ii 0 -Iv 29 -P aodv -Pt 0x2 -Ph 2 -Pb 1 -Pd 2 -Pds 0 -Ps 0 -Pss 4 -Pc REQUEST 
s -t 1.005515947 -Hs 2 -Hd -2 -Ni 2 -Nx 700.00 -Ny 200.00 -Nz 100.00 -Ne -1.000000 -Nl MAC -Nw --- -Ma 0 -Md ffffffff -Ms 2 -Mt 800 -Is 2.255 -Id -1.255 -It AODV -Il 106 -If 0 -Ii 0 -Iv 29 -P aodv -Pt 0x2 -Ph 2 -Pb 1 -Pd 1 -Pds 0 -Ps 3 -Pss 4 -Pc REQUEST 
d -t 1.005517114 -Hs 1 -Hd -2 -Ni 1 -Nx 350.00 -Ny 200.00 -Nz 100.00 -Ne -1.000000 -Nl MAC -Nw COL -Ma 0 -Md ffffffff -Ms 0 -Mt 800 -Is 0.255 -Id -1.255 -It AODV -Il 106 -If 0 -Ii 0 -Iv 29 -P aodv -Pt 0x2 -Ph 2 -Pb 1 -Pd 1 -Pds 0 -Ps 3 -Pss 4 -Pc REQUEST 
d -t 1.005517161 -Hs 3 -Hd -2 -Ni 3 -Nx 350.00 -Ny 100.00 -Nz 100.00 -Ne -1.000000 -Nl MAC -Nw COL -Ma 0 -Md ffffffff -Ms 0 -Mt 800 -Is 0.255 -Id -1.255 -It AODV -Il 106 -If 0 -Ii 0 -Iv 29 -P aodv -Pt 0x2 -Ph 2 -Pb 1 -Pd 1 -Pds 0 -Ps 3 -Pss 4 -Pc REQUEST 
d -t 1.006365114 -Hs 1 -Hd -2 -Ni 1 -Nx 350.00 -Ny 200.00 -Nz 100.00 -Ne -1.000000 -Nl MAC -Nw COL -Ma 0 -Md ffffffff -Ms 2 -Mt 800 -Is 2.255 -Id -1.255 -It AODV -Il 106 -If 0 -Ii 0 -Iv 29 -P aodv -Pt 0x2 -Ph 2 -Pb 1 -Pd 1 -Pds 0 -Ps 3 -Pss 4 -Pc REQUEST 
d -t 1.006365161 -Hs 3 -Hd -2 -Ni 3 -Nx 350.00 -Ny 100.00 -Nz 100.00 -Ne -1.000000 -Nl MAC -Nw COL -Ma 0 -Md ffffffff -Ms 2 -Mt 800 -Is 2.255 -Id -1.255 -It AODV -Il 106 -If 0 -Ii 0 -Iv 29 -P aodv -Pt 0x2 -Ph 2 -Pb 1 -Pd 1 -Pds 0 -Ps 3 -Pss 4 -Pc REQUEST 
s -t 1.006979114 -Hs 1 -Hd -2 -Ni 1 -Nx 350.00 -Ny 200.00 -Nz 100.00 -Ne -1.000000 -Nl MAC -Nw --- -Ma 5ae -Md 3 -Ms 1 -Mt 0 
r -t 1.007331447 -Hs 3 -Hd -2 -Ni 3 -Nx 350.00 -Ny 100.00 -Nz 100.00 -Ne -1.000000 -Nl MAC -Nw --- -Ma 5ae -Md 3 -Ms 1 -Mt 0 
s -t 1.007341447 -Hs 3 -Hd -2 -Ni 3 -Nx 350.00 -Ny 100.00 -Nz 100.00 -Ne -1.000000 -Nl MAC -Nw --- -Ma 474 -Md 1 -Ms 0 -Mt 0 
r -t 1.007645781 -Hs 1 -Hd -2 -Ni 1 -Nx 350.00 -Ny 200.00 -Nz 100.00 -Ne -1.000000 -Nl MAC -Nw --- -Ma 474 -Md 1 -Ms 0 -Mt 0 
s -t 1.007655781 -Hs 1 -Hd 3 -Ni 1 -Nx 350.00 -Ny 200.00 -Nz 100.00 -Ne -1.000000 -Nl MAC -Nw --- -Ma 13a -Md 3 -Ms 1 -Mt 800 -Is 1.255 -Id 3.255 -It AODV -Il 102 -If 0 -Ii 0 -Iv 30 -P aodv -Pt 0x4 -Ph 1 -Pd 1 -Pds 4 -Pl 10.000000 -Pc REPLY 
r -t 1.008472114 -Hs 3 -Hd 3 -Ni 3 -Nx 350.00 -Ny 100.00 -Nz 100.00 -Ne -1.000000 -Nl MAC -Nw --- -Ma 13a -Md 3 -Ms 1 -Mt 800 -Is 1.255 -Id 3.255 -It AODV -Il 44 -If 0 -Ii 0 -Iv 30 -P aodv -Pt 0x4 -Ph 1 -Pd 1 -Pds 4 -Pl 10.000000 -Pc REPLY 
s -t 1.008482114 -Hs 3 -Hd -2 -Ni 3 -Nx 350.00 -Ny 100.00 -Nz 100.00 -Ne -1.000000 -Nl MAC -Nw --- -Ma 0 -Md 1 -Ms 0 -Mt 0 
r -t 1.008497114 -Hs 3 -Hd 3 -Ni 3 -Nx 350.00 -Ny 100.00 -Nz 100.00 -Ne -1.000000 -Nl RTR -Nw --- -Ma 13a -Md 3 -Ms 1 -Mt 800 -Is 1.255 -Id 3.255 -It AODV -Il 44 -If 0 -Ii 0 -Iv 30 -P aodv -Pt 0x4 -Ph 1 -Pd 1 -Pds 4 -Pl 10.000000 -Pc REPLY 
s -t 1.008497114 -Hs 3 -Hd 1 -Ni 3 -Nx 350.00 -Ny 100.00 -Nz 100.00 -Ne -1.000000 -Nl RTR -Nw --- -Ma 0 -Md 0 -Ms 0 -Mt 0 -Is 3.0 -Id 1.0 -It cbr -Il 532 -If 2 -Ii 1 -Iv 30 -Pn cbr -Pi 0 -Pf 0 -Po 0 
r -t 1.008786447 -Hs 1 -Hd -2 -Ni 1 -Nx 350.00 -Ny 200.00 -Nz 100.00 -Ne -1.000000 -Nl MAC -Nw --- -Ma 0 -Md 1 -Ms 0 -Mt 0 
s -t 1.009076447 -Hs 1 -Hd -2 -Ni 1 -Nx 350.00 -Ny 200.00 -Nz 100.00 -Ne -1.000000 -Nl MAC -Nw --- -Ma 0 -Md ffffffff -Ms 1 -Mt 800 -Is 1.255 -Id -1.255 -It AODV -Il 106 -If 0 -Ii 0 -Iv 29 -P aodv -Pt 0x2 -Ph 2 -Pb 1 -Pd 2 -Pds 0 -Ps 0 -Pss 4 -Pc REQUEST 
s -t 1.009445365 -Hs 3 -Hd -2 -Ni 3 -Nx 350.00 -Ny 100.00 -Nz 100.00 -Ne -1.000000 -Nl RTR -Nw --- -Ma 0 -Md ffffffff -Ms 0 -Mt 800 -Is 3.255 -Id -1.255 -It AODV -Il 48 -If 0 -Ii 0 -Iv 29 -P aodv -Pt 0x2 -Ph 2 -Pb 1 -Pd 2 -Pds 0 -Ps 0 -Pss 4 -Pc REQUEST 
r -t 1.009924781 -Hs 3 -Hd -2 -Ni 3 -Nx 350.00 -Ny 100.00 -Nz 100.00 -Ne -1.000000 -Nl MAC -Nw --- -Ma 0 -Md ffffffff -Ms 1 -Mt 800 -Is 1.255 -Id -1.255 -It AODV -Il 48 -If 0 -Ii 0 -Iv 29 -P aodv -Pt 0x2 -Ph 2 -Pb 1 -Pd 2 -Pds 0 -Ps 0 -Pss 4 -Pc REQUEST 
r -t 1.009925614 -Hs 0 -Hd -2 -Ni 0 -Nx 0.00 -Ny 200.00 -Nz 100.00 -Ne -1.000000 -Nl MAC -Nw --- -Ma 0 -Md ffffffff -Ms 1 -Mt 800 -Is 1.255 -Id -1.255 -It AODV -Il 48 -If 0 -Ii 0 -Iv 29 -P aodv -Pt 0x2 -Ph 2 -Pb 1 -Pd 2 -Pds 0 -Ps 0 -Pss 4 -Pc REQUEST 
r -t 1.009925614 -Hs 2 -Hd -2 -Ni 2 -Nx 700.00 -Ny 200.00 -Nz 100.00 -Ne -1.000000 -Nl MAC -Nw --- -Ma 0 -Md ffffffff -Ms 1 -Mt 800 -Is 1.255 -Id -1.255 -It AODV -Il 48 -If 0 -Ii 0 -Iv 29 -P aodv -Pt 0x2 -Ph 2 -Pb 1 -Pd 2 -Pds 0 -Ps 0 -Pss 4 -Pc REQUEST 
r -t 1.009949781 -Hs 3 -Hd -2 -Ni 3 -Nx 350.00 -Ny 100.00 -Nz 100.00 -Ne -1.000000 -Nl RTR -Nw --- -Ma 0 -Md ffffffff -Ms 1 -Mt 800 -Is 1.255 -Id -1.255 -It AODV -Il 48 -If 0 -Ii 0 -Iv 29 -P aodv -Pt 0x2 -Ph 2 -Pb 1 -Pd 2 -Pds 0 -Ps 0 -Pss 4 -Pc REQUEST 
r -t 1.009950614 -Hs 0 -Hd -2 -Ni 0 -Nx 0.00 -Ny 200.00 -Nz 100.00 -Ne -1.000000 -Nl RTR -Nw --- -Ma 0 -Md ffffffff -Ms 1 -Mt 800 -Is 1.255 -Id -1.255 -It AODV -Il 48 -If 0 -Ii 0 -Iv 29 -P aodv -Pt 0x2 -Ph 2 -Pb 1 -Pd 2 -Pds 0 -Ps 0 -Pss 4 -Pc REQUEST 
r -t 1.009950614 -Hs 2 -Hd -2 -Ni 2 -Nx 700.00 -Ny 200.00 -Nz 100.00 -Ne -1.000000 -Nl RTR -Nw --- -Ma 0 -Md ffffffff -Ms 1 -Mt 800 -Is 1.255 -Id -1.255 -It AODV -Il 48 -If 0 -Ii 0 -Iv 29 -P aodv -Pt 0x2 -Ph 2 -Pb 1 -Pd 2 -Pds 0 -Ps 0 -Pss 4 -Pc REQUEST 
s -t 1.009950614 -Hs 2 -Hd 1 -Ni 2 -Nx 700.00 -Ny 200.00 -Nz 100.00 -Ne -1.000000 -Nl RTR -Nw --- -Ma 0 -Md 0 -Ms 0 -Mt 0 -Is 2.255 -Id 0.255 -It AODV -Il 44 -If 0 -Ii 0 -Iv 30 -P aodv -Pt 0x4 -Ph 1 -Pd 2 -Pds 4 -Pl 10.000000 -Pc REPLY 
s -t 1.010094781 -Hs 3 -Hd -2 -Ni 3 -Nx 350.00 -Ny 100.00 -Nz 100.00 -Ne -1.000000 -Nl MAC -Nw --- -Ma 14ee -Md 1 -Ms 3 -Mt 0 
r -t 1.010447114 -Hs 1 -Hd -2 -Ni 1 -Nx 350.00 -Ny 200.00 -Nz 100.00 -Ne -1.000000 -Nl MAC -Nw --- -Ma 14ee -Md 1 -Ms 3 -Mt 0 
s -t 1.010457114 -Hs 1 -Hd -2 -Ni 1 -Nx 350.00 -Ny 200.00 -Nz 100.00 -Ne -1.000000 -Nl MAC -Nw --- -Ma 13b4 -Md 3 -Ms 0 -Mt 0 
r -t 1.010761447 -Hs 3 -Hd -2 -Ni 3 -Nx 350.00 -Ny 100.00 -Nz 100.00 -Ne -1.000000 -Nl MAC -Nw --- -Ma 13b4 -Md 3 -Ms 0 -Mt 0 
s -t 1.010771447 -Hs 3 -Hd 1 -Ni 3 -Nx 350.00 -Ny 100.00 -Nz 100.00 -Ne -1.000000 -Nl MAC -Nw --- -Ma 13a -Md 1 -Ms 3 -Mt 800 -Is 3.0 -Id 1.0 -It cbr -Il 590 -If 2 -Ii 1 -Iv 30 -Pn cbr -Pi 0 -Pf 0 -Po 0 
r -t 1.015491781 -Hs 1 -Hd 1 -Ni 1 -Nx 350.00 -Ny 200.00 -Nz 100.00 -Ne -1.000000 -Nl MAC -Nw --- -Ma 13a -Md 1 -Ms 3 -Mt 800 -Is 3.0 -Id 1.0 -It cbr -Il 532 -If 2 -Ii 1 -Iv 30 -Pn cbr -Pi 0 -Pf 1 -Po 0 
s -t 1.015501781 -Hs 1 -Hd -2 -Ni 1 -Nx 350.00 -Ny 200.00 -Nz 100.00 -Ne -1.000000 -Nl MAC -Nw --- -Ma 0 -Md 3 -Ms 0 -Mt 0 
r -t 1.015516781 -Hs 1 -Hd 1 -Ni 1 -Nx 350.00 -Ny 200.00 -Nz 100.00 -Ne -1.000000 -Nl AGT -Nw --- -Ma 13a -Md 1 -Ms 3 -Mt 800 -Is 3.0 -Id 1.0 -It cbr -Il 532 -If 2 -Ii 1 -Iv 30 -Pn cbr -Pi 0 -Pf 1 -Po 0 
r -t 1.015806114 -Hs 3 -Hd -2 -Ni 3 -Nx 350.00 -Ny 100.00 -Nz 100.00 -Ne -1.000000 -Nl MAC -Nw --- -Ma 0 -Md 3 -Ms 0 -Mt 0 
s -t 1.016196114 -Hs 3 -Hd -2 -Ni 3 -Nx 350.00 -Ny 100.00 -Nz 100.00 -Ne -1.000000 -Nl MAC -Nw --- -Ma 0 -Md ffffffff -Ms 3 -Mt 800 -Is 3.255 -Id -1.255 -It AODV -Il 106 -If 0 -Ii 0 -Iv 29 -P aodv -Pt 0x2 -Ph 2 -Pb 1 -Pd 2 -Pds 0 -Ps 0 -Pss 4 -Pc REQUEST 
r -t 1.017044447 -Hs 1 -Hd -2 -Ni 1 -Nx 350.00 -Ny 200.00 -Nz 100.00 -Ne -1.000000 -Nl MAC -Nw --- -Ma 0 -Md ffffffff -Ms 3 -Mt 800 -Is 3.255 -Id -1.255 -It AODV -Il 48 -If 0 -Ii 0 -Iv 29 -P aodv -Pt 0x2 -Ph 2 -Pb 1 -Pd 2 -Pds 0 -Ps 0 -Pss 4 -Pc REQUEST 
r -t 1.017045327 -Hs 0 -Hd -2 -Ni 0 -Nx 0.00 -Ny 200.00 -Nz 100.00 -Ne -1.000000 -Nl MAC -Nw --- -Ma 0 -Md ffffffff -Ms 3 -Mt 800 -Is 3.255 -Id -1.255 -It AODV -Il 48 -If 0 -Ii 0 -Iv 29 -P aodv -Pt 0x2 -Ph 2 -Pb 1 -Pd 2 -Pds 0 -Ps 0 -Pss 4 -Pc REQUEST 
r -t 1.017045327 -Hs 2 -Hd -2 -Ni 2 -Nx 700.00 -Ny 200.00 -Nz 100.00 -Ne -1.000000 -Nl MAC -Nw --- -Ma 0 -Md ffffffff -Ms 3 -Mt 800 -Is 3.255 -Id -1.255 -It AODV -Il 48 -If 0 -Ii 0 -Iv 29 -P aodv -Pt 0x2 -Ph 2 -Pb 1 -Pd 2 -Pds 0 -Ps 0 -Pss 4 -Pc REQUEST 
r -t 1.017069447 -Hs 1 -Hd -2 -Ni 1 -Nx 350.00 -Ny 200.00 -Nz 100.00 -Ne -1.000000 -Nl RTR -Nw --- -Ma 0 -Md ffffffff -Ms 3 -Mt 800 -Is 3.255 -Id -1.255 -It AODV -Il 48 -If 0 -Ii 0 -Iv 29 -P aodv -Pt 0x2 -Ph 2 -Pb 1 -Pd 2 -Pds 0 -Ps 0 -Pss 4 -Pc REQUEST 
r -t 1.017070327 -Hs 0 -Hd -2 -Ni 0 -Nx 0.00 -Ny 200.00 -Nz 100.00 -Ne -1.000000 -Nl RTR -Nw --- -Ma 0 -Md ffffffff -Ms 3 -Mt 800 -Is 3.255 -Id -1.255 -It AODV -Il 48 -If 0 -Ii 0 -Iv 29 -P aodv -Pt 0x2 -Ph 2 -Pb 1 -Pd 2 -Pds 0 -Ps 0 -Pss 4 -Pc REQUEST 
r -t 1.017070327 -Hs 2 -Hd -2 -Ni 2 -Nx 700.00 -Ny 200.00 -Nz 100.00 -Ne -1.000000 -Nl RTR -Nw --- -Ma 0 -Md ffffffff -Ms 3 -Mt 800 -Is 3.255 -Id -1.255 -It AODV -Il 48 -If 0 -Ii 0 -Iv 29 -P aodv -Pt 0x2 -Ph 2 -Pb 1 -Pd 2 -Pds 0 -Ps 0 -Pss 4 -Pc REQUEST 
s -t 1.017175327 -Hs 2 -Hd -2 -Ni 2 -Nx 700.00 -Ny 200.00 -Nz 100.00 -Ne -1.000000 -Nl MAC -Nw --- -Ma 5ae -Md 1 -Ms 2 -Mt 0 
r -t 1.017528494 -Hs 1 -Hd -2 -Ni 1 -Nx 350.00 -Ny 200.00 -Nz 100.00 -Ne -1.000000 -Nl MAC -Nw --- -Ma 5ae -Md 1 -Ms 2 -Mt 0 
s -t 1.017538494 -Hs 1 -Hd -2 -Ni 1 -Nx 350.00 -Ny 200.00 -Nz 100.00 -Ne -1.000000 -Nl MAC -Nw --- -Ma 474 -Md 2 -Ms 0 -Mt 0 
r -t 1.017843661 -Hs 2 -Hd -2 -Ni 2 -Nx 700.00 -Ny 200.00 -Nz 100.00 -Ne -1.000000 -Nl MAC -Nw --- -Ma 474 -Md 2 -Ms 0 -Mt 0 
s -t 1.017853661 -Hs 2 -Hd 1 -Ni 2 -Nx 700.00 -Ny 200.00 -Nz 100.00 -Ne -1.000000 -Nl MAC -Nw --- -Ma 13a -Md 1 -Ms 2 -Mt 800 -Is 2.255 -Id 0.255 -It AODV -Il 102 -If 0 -Ii 0 -Iv 30 -P aodv -Pt 0x4 -Ph 1 -Pd 2 -Pds 4 -Pl 10.000000 -Pc REPLY 
r -t 1.018670827 -Hs 1 -Hd 1 -Ni 1 -Nx 350.00 -Ny 200.00 -Nz 100.00 -Ne -1.000000 -Nl MAC -Nw --- -Ma 13a -Md 1 -Ms 2 -Mt 800 -Is 2.255 -Id 0.255 -It AODV -Il 44 -If 0 -Ii 0 -Iv 30 -P aodv -Pt 0x4 -Ph 1 -Pd 2 -Pds 4 -Pl 10.000000 -Pc REPLY 
s -t 1.018680827 -Hs 1 -Hd -2 -Ni 1 -Nx 350.00 -Ny 200.00 -Nz 100.00 -Ne -1.000000 -Nl MAC -Nw --- -Ma 0 -Md 2 -Ms 0 -Mt 0 
r -t 1.018695827 -Hs 1 -Hd 1 -Ni 1 -Nx 350.00 -Ny 200.00 -Nz 100.00 -Ne -1.000000 -Nl RTR -Nw --- -Ma 13a -Md 1 -Ms 2 -Mt 800 -Is 2.255 -Id 0.255 -It AODV -Il 44 -If 0 -Ii 0 -Iv 30 -P aodv -Pt 0x4 -Ph 1 -Pd 2 -Pds 4 -Pl 10.000000 -Pc REPLY 
f -t 1.018695827 -Hs 1 -Hd 0 -Ni 1 -Nx 350.00 -Ny 200.00 -Nz 100.00 -Ne -1.000000 -Nl RTR -Nw --- -Ma 13a -Md 1 -Ms 2 -Mt 800 -Is 2.255 -Id 0.255 -It AODV -Il 44 -If 0 -Ii 0 -Iv 29 -P aodv -Pt 0x4 -Ph 2 -Pd 2 -Pds 4 -Pl 10.000000 -Pc REPLY 
r -t 1.018985994 -Hs 2 -Hd -2 -Ni 2 -Nx 700.00 -Ny 200.00 -Nz 100.00 -Ne -1.000000 -Nl MAC -Nw --- -Ma 0 -Md 2 -Ms 0 -Mt 0 
s -t 1.019234827 -Hs 1 -Hd -2 -Ni 1 -Nx 350.00 -Ny 200.00 -Nz 100.00 -Ne -1.000000 -Nl MAC -Nw --- -Ma 0 -Md ffffffff -Ms 1 -Mt 806 -P arp -Po REQUEST -Pms 1 -Ps 1 -Pmd 0 -Pd 0 
r -t 1.019923161 -Hs 3 -Hd -2 -Ni 3 -Nx 350.00 -Ny 100.00 -Nz 100.00 -Ne -1.000000 -Nl MAC -Nw --- -Ma 0 -Md ffffffff -Ms 1 -Mt 806 -P arp -Po REQUEST -Pms 1 -Ps 1 -Pmd 0 -Pd 0 
r -t 1.019923994 -Hs 0 -Hd -2 -Ni 0 -Nx 0.00 -Ny 200.00 -Nz 100.00 -Ne -1.000000 -Nl MAC -Nw --- -Ma 0 -Md ffffffff -Ms 1 -Mt 806 -P arp -Po REQUEST -Pms 1 -Ps 1 -Pmd 0 -Pd 0 
r -t 1.019923994 -Hs 2 -Hd -2 -Ni 2 -Nx 700.00 -Ny 200.00 -Nz 100.00 -Ne -1.000000 -Nl MAC -Nw --- -Ma 0 -Md ffffffff -Ms 1 -Mt 806 -P arp -Po REQUEST -Pms 1 -Ps 1 -Pmd 0 -Pd 0 
s -t 1.020218994 -Hs 0 -Hd -2 -Ni 0 -Nx 0.00 -Ny 200.00 -Nz 100.00 -Ne -1.000000 -Nl MAC -Nw --- -Ma 52e -Md 1 -Ms 0 -Mt 0 
r -t 1.020572161 -Hs 1 -Hd -2 -Ni 1 -Nx 350.00 -Ny 200.00 -Nz 100.00 -Ne -1.000000 -Nl MAC -Nw --- -Ma 52e -Md 1 -Ms 0 -Mt 0 
s -t 1.020582161 -Hs 1 -Hd -2 -Ni 1 -Nx 350.00 -Ny 200.00 -Nz 100.00 -Ne -1.000000 -Nl MAC -Nw --- -Ma 3f4 -Md 0 -Ms 0 -Mt 0 
r -t 1.020887327 -Hs 0 -Hd -2 -Ni 0 -Nx 0.00 -Ny 200.00 -Nz 100.00 -Ne -1.000000 -Nl MAC -Nw --- -Ma 3f4 -Md 0 -Ms 0 -Mt 0 
s -t 1.020897327 -Hs 0 -Hd -2 -Ni 0 -Nx 0.00 -Ny 200.00 -Nz 100.00 -Ne -1.000000 -Nl MAC -Nw --- -Ma 13a -Md 1 -Ms 0 -Mt 806 -P arp -Po REPLY -Pms 0 -Ps 0 -Pmd 1 -Pd 1 
r -t 1.021586494 -Hs 1 -Hd -2 -Ni 1 -Nx 350.00 -Ny 200.00 -Nz 100.00 -Ne -1.000000 -Nl MAC -Nw --- -Ma 13a -Md 1 -Ms 0 -Mt 806 -P arp -Po REPLY -Pms 0 -Ps 0 -Pmd 1 -Pd 1 
s -t 1.021596494 -Hs 1 -Hd -2 -Ni 1 -Nx 350.00 -Ny 200.00 -Nz 100.00 -Ne -1.000000 -Nl MAC -Nw --- -Ma 0 -Md 0 -Ms 0 -Mt 0 
r -t 1.021901661 -Hs 0 -Hd -2 -Ni 0 -Nx 0.00 -Ny 200.00 -Nz 100.00 -Ne -1.000000 -Nl MAC -Nw --- -Ma 0 -Md 0 -Ms 0 -Mt 0 
s -t 1.022390494 -Hs 1 -Hd -2 -Ni 1 -Nx 350.00 -Ny 200.00 -Nz 100.00 -Ne -1.000000 -Nl MAC -Nw --- -Ma 5ae -Md 0 -Ms 1 -Mt 0 
r -t 1.022743661 -Hs 0 -Hd -2 -Ni 0 -Nx 0.00 -Ny 200.00 -Nz 100.00 -Ne -1.000000 -Nl MAC -Nw --- -Ma 5ae -Md 0 -Ms 1 -Mt 0 
s -t 1.022753661 -Hs 0 -Hd -2 -Ni 0 -Nx 0.00 -Ny 200.00 -Nz 100.00 -Ne -1.000000 -Nl MAC -Nw --- -Ma 474 -Md 1 -Ms 0 -Mt 0 
r -t 1.023058827 -Hs 1 -Hd -2 -Ni 1 -Nx 350.00 -Ny 200.00 -Nz 100.00 -Ne -1.000000 -Nl MAC -Nw --- -Ma 474 -Md 1 -Ms 0 -Mt 0 
s -t 1.023068827 -Hs 1 -Hd 0 -Ni 1 -Nx 350.00 -Ny 200.00 -Nz 100.00 -Ne -1.000000 -Nl MAC -Nw --- -Ma 13a -Md 0 -Ms 1 -Mt 800 -Is 2.255 -Id 0.255 -It AODV -Il 102 -If 0 -Ii 0 -Iv 29 -P aodv -Pt 0x4 -Ph 2 -Pd 2 -Pds 4 -Pl 10.000000 -Pc REPLY 
r -t 1.023885994 -Hs 0 -Hd 0 -Ni 0 -Nx 0.00 -Ny 200.00 -Nz 100.00 -Ne -1.000000 -Nl MAC -Nw --- -Ma 13a -Md 0 -Ms 1 -Mt 800 -Is 2.255 -Id 0.255 -It AODV -Il 44 -If 0 -Ii 0 -Iv 29 -P aodv -Pt 0x4 -Ph 2 -Pd 2 -Pds 4 -Pl 10.000000 -Pc REPLY 
s -t 1.023895994 -Hs 0 -Hd -2 -Ni 0 -Nx 0.00 -Ny 200.00 -Nz 100.00 -Ne -1.000000 -Nl MAC -Nw --- -Ma 0 -Md 1 -Ms 0 -Mt 0 
r -t 1.023910994 -Hs 0 -Hd 0 -Ni 0 -Nx 0.00 -Ny 200.00 -Nz 100.00 -Ne -1.000000 -Nl RTR -Nw --- -Ma 13a -Md 0 -Ms 1 -Mt 800 -Is 2.255 -Id 0.255 -It AODV -Il 44 -If 0 -Ii 0 -Iv 29 -P aodv -Pt 0x4 -Ph 2 -Pd 2 -Pds 4 -Pl 10.000000 -Pc REPLY 
s -t 1.023910994 -Hs 0 -Hd 1 -Ni 0 -Nx 0.00 -Ny 200.00 -Nz 100.00 -Ne -1.000000 -Nl RTR -Nw --- -Ma 0 -Md 0 -Ms 0 -Mt 0 -Is 0.0 -Id 2.0 -It cbr -Il 532 -If 0 -Ii 0 -Iv 30 -Pn cbr -Pi 0 -Pf 0 -Po 0 
r -t 1.024201161 -Hs 1 -Hd -2 -Ni 1 -Nx 350.00 -Ny 200.00 -Nz 100.00 -Ne -1.000000 -Nl MAC -Nw --- -Ma 0 -Md 1 -Ms 0 -Mt 0 
s -t 1.024829994 -Hs 0 -Hd -2 -Ni 0 -Nx 0.00 -Ny 200.00 -Nz 100.00 -Ne -1.000000 -Nl MAC -Nw --- -Ma 14ee -Md 1 -Ms 0 -Mt 0 
r -t 1.025183161 -Hs 1 -Hd -2 -Ni 1 -Nx 350.00 -Ny 200.00 -Nz 100.00 -Ne -1.000000 -Nl MAC -Nw --- -Ma 14ee -Md 1 -Ms 0 -Mt 0 
s -t 1.025193161 -Hs 1 -Hd -2 -Ni 1 -Nx 350.00 -Ny 200.00 -Nz 100.00 -Ne -1.000000 -Nl MAC -Nw --- -Ma 13b4 -Md 0 -Ms 0 -Mt 0 
r -t 1.025498327 -Hs 0 -Hd -2 -Ni 0 -Nx 0.00 -Ny 200.00 -Nz 100.00 -Ne -1.000000 -Nl MAC -Nw --- -Ma 13b4 -Md 0 -Ms 0 -Mt 0 
s -t 1.025508327 -Hs 0 -Hd 1 -Ni 0 -Nx 0.00 -Ny 200.00 -Nz 100.00 -Ne -1.000000 -Nl MAC -Nw --- -Ma 13a -Md 1 -Ms 0 -Mt 800 -Is 0.0 -Id 2.0 -It cbr -Il 590 -If 0 -Ii 0 -Iv 30 -Pn cbr -Pi 0 -Pf 0 -Po 0 
r -t 1.030229494 -Hs 1 -Hd 1 -Ni 1 -Nx 350.00 -Ny 200.00 -Nz 100.00 -Ne -1.000000 -Nl MAC -Nw --- -Ma 13a -Md 1 -Ms 0 -Mt 800 -Is 0.0 -Id 2.0 -It cbr -Il 532 -If 0 -Ii 0 -Iv 30 -Pn cbr -Pi 0 -Pf 1 -Po 0 
s -t 1.030239494 -Hs 1 -Hd -2 -Ni 1 -Nx 350.00 -Ny 200.00 -Nz 100.00 -Ne -1.000000 -Nl MAC -Nw --- -Ma 0 -Md 0 -Ms 0 -Mt 0 
r -t 1.030254494 -Hs 1 -Hd 1 -Ni 1 -Nx 350.00 -Ny 200.00 -Nz 100.00 -Ne -1.000000 -Nl RTR -Nw --- -Ma 13a -Md 1 -Ms 0 -Mt 800 -Is 0.0 -Id 2.0 -It cbr -Il 532 -If 0 -Ii 0 -Iv 30 -Pn cbr -Pi 0 -Pf 1 -Po 0 
f -t 1.030254494 -Hs 1 -Hd 2 -Ni 1 -Nx 350.00 -Ny 200.00 -Nz 100.00 -Ne -1.000000 -Nl RTR -Nw --- -Ma 13a -Md 1 -Ms 0 -Mt 800 -Is 0.0 -Id 2.0 -It cbr -Il 532 -If 0 -Ii 0 -Iv 29 -Pn cbr -Pi 0 -Pf 1 -Po 0 
r -t 1.030544661 -Hs 0 -Hd -2 -Ni 0 -Nx 0.00 -Ny 200.00 -Nz 100.00 -Ne -1.000000 -Nl MAC -Nw --- -Ma 0 -Md 0 -Ms 0 -Mt 0 
s -t 1.031133494 -Hs 1 -Hd -2 -Ni 1 -Nx 350.00 -Ny 200.00 -Nz 100.00 -Ne -1.000000 -Nl MAC -Nw --- -Ma 0 -Md ffffffff -Ms 1 -Mt 806 -P arp -Po REQUEST -Pms 1 -Ps 1 -Pmd 0 -Pd 2 
r -t 1.031821827 -Hs 3 -Hd -2 -Ni 3 -Nx 350.00 -Ny 100.00 -Nz 100.00 -Ne -1.000000 -Nl MAC -Nw --- -Ma 0 -Md ffffffff -Ms 1 -Mt 806 -P arp -Po REQUEST -Pms 1 -Ps 1 -Pmd 0 -Pd 2 
r -t 1.031822661 -Hs 0 -Hd -2 -Ni 0 -Nx 0.00 -Ny 200.00 -Nz 100.00 -Ne -1.000000 -Nl MAC -Nw --- -Ma 0 -Md ffffffff -Ms 1 -Mt 806 -P arp -Po REQUEST -Pms 1 -Ps 1 -Pmd 0 -Pd 2 
r -t 1.031822661 -Hs 2 -Hd -2 -Ni 2 -Nx 700.00 -Ny 200.00 -Nz 100.00 -Ne -1.000000 -Nl MAC -Nw --- -Ma 0 -Md ffffffff -Ms 1 -Mt 806 -P arp -Po REQUEST -Pms 1 -Ps 1 -Pmd 0 -Pd 2 
s -t 1.032177661 -Hs 2 -Hd -2 -Ni 2 -Nx 700.00 -Ny 200.00 -Nz 100.00 -Ne -1.000000 -Nl MAC -Nw --- -Ma 52e -Md 1 -Ms 2 -Mt 0 
r -t 1.032530827 -Hs 1 -Hd -2 -Ni 1 -Nx 350.00 -Ny 200.00 -Nz 100.00 -Ne -1.000000 -Nl MAC -Nw --- -Ma 52e -Md 1 -Ms 2 -Mt 0 
s -t 1.032540827 -Hs 1 -Hd -2 -Ni 1 -Nx 350.00 -Ny 200.00 -Nz 100.00 -Ne -1.000000 -Nl MAC -Nw --- -Ma 3f4 -Md 2 -Ms 0 -Mt 0 
r -t 1.032845994 -Hs 2 -Hd -2 -Ni 2 -Nx 700.00 -Ny 200.00 -Nz 100.00 -Ne -1.000000 -Nl MAC -Nw --- -Ma 3f4 -Md 2 -Ms 0 -Mt 0 
s -t 1.032855994 -Hs 2 -Hd -2 -Ni 2 -Nx 700.00 -Ny 200.00 -Nz 100.00 -Ne -1.000000 -Nl MAC -Nw --- -Ma 13a -Md 1 -Ms 2 -Mt 806 -P arp -Po REPLY -Pms 2 -Ps 2 -Pmd 1 -Pd 1 
r -t 1.033545161 -Hs 1 -Hd -2 -Ni 1 -Nx 350.00 -Ny 200.00 -Nz 100.00 -Ne -1.000000 -Nl MAC -Nw --- -Ma 13a -Md 1 -Ms 2 -Mt 806 -P arp -Po REPLY -Pms 2 -Ps 2 -Pmd 1 -Pd 1 
s -t 1.033555161 -Hs 1 -Hd -2 -Ni 1 -Nx 350.00 -Ny 200.00 -Nz 100.00 -Ne -1.000000 -Nl MAC -Nw --- -Ma 0 -Md 2 -Ms 0 -Mt 0 
r -t 1.033860327 -Hs 2 -Hd -2 -Ni 2 -Nx 700.00 -Ny 200.00 -Nz 100.00 -Ne -1.000000 -Nl MAC -Nw --- -Ma 0 -Md 2 -Ms 0 -Mt 0 
s -t 1.034269161 -Hs 1 -Hd -2 -Ni 1 -Nx 350.00 -Ny 200.00 -Nz 100.00 -Ne -1.000000 -Nl MAC -Nw --- -Ma 14ee -Md 2 -Ms 1 -Mt 0 
r -t 1.034622327 -Hs 2 -Hd -2 -Ni 2 -Nx 700.00 -Ny 200.00 -Nz 100.00 -Ne -1.000000 -Nl MAC -Nw --- -Ma 14ee -Md 2 -Ms 1 -Mt 0 
s -t 1.034632327 -Hs 2 -Hd -2 -Ni 2 -Nx 700.00 -Ny 200.00 -Nz 100.00 -Ne -1.000000 -Nl MAC -Nw --- -Ma 13b4 -Md 1 -Ms 0 -Mt 0 
r -t 1.034937494 -Hs 1 -Hd -2 -Ni 1 -Nx 350.00 -Ny 200.00 -Nz 100.00 -Ne -1.000000 -Nl MAC -Nw --- -Ma 13b4 -Md 1 -Ms 0 -Mt 0 
s -t 1.034947494 -Hs 1 -Hd 2 -Ni 1 -Nx 350.00 -Ny 200.00 -Nz 100.00 -Ne -1.000000 -Nl MAC -Nw --- -Ma 13a -Md 2 -Ms 1 -Mt 800 -Is 0.0 -Id 2.0 -It cbr -Il 590 -If 0 -Ii 0 -Iv 29 -Pn cbr -Pi 0 -Pf 1 -Po 0 
r -t 1.039668661 -Hs 2 -Hd 2 -Ni 2 -Nx 700.00 -Ny 200.00 -Nz 100.00 -Ne -1.000000 -Nl MAC -Nw --- -Ma 13a -Md 2 -Ms 1 -Mt 800 -Is 0.0 -Id 2.0 -It cbr -Il 532 -If 0 -Ii 0 -Iv 29 -Pn cbr -Pi 0 -Pf 2 -Po 0 
s -t 1.039678661 -Hs 2 -Hd -2 -Ni 2 -Nx 700.00 -Ny 200.00 -Nz 100.00 -Ne -1.000000 -Nl MAC -Nw --- -Ma 0 -Md 1 -Ms 0 -Mt 0 
r -t 1.039693661 -Hs 2 -Hd 2 -Ni 2 -Nx 700.00 -Ny 200.00 -Nz 100.00 -Ne -1.000000 -Nl AGT -Nw --- -Ma 13a -Md 2 -Ms 1 -Mt 800 -Is 0.0 -Id 2.0 -It cbr -Il 532 -If 0 -Ii 0 -Iv 29 -Pn cbr -Pi 0 -Pf 2 -Po 0 
r -t 1.039983827 -Hs 1 -Hd -2 -Ni 1 -Nx 350.00 -Ny 200.00 -Nz 100.00 -Ne -1.000000 -Nl MAC -Nw --- -Ma 0 -Md 1 -Ms 0 -Mt 0 
s -t 1.100000000 -Hs 0 -Hd -2 -Ni 0 -Nx 0.00 -Ny 200.00 -Nz 100.00 -Ne -1.000000 -Nl AGT -Nw --- -Ma 0 -Md 0 -Ms 0 -Mt 0 -Is 0.0 -Id 2.0 -It cbr -Il 512 -If 0 -Ii 2 -Iv 32 -Pn cbr -Pi 1 -Pf 0 -Po 0 
r -t 1.100000000 -Hs 0 -Hd -2 -Ni 0 -Nx 0.00 -Ny 200.00 -Nz 100.00 -Ne -1.000000 -Nl RTR -Nw --- -Ma 0 -Md 0 -Ms 0 -Mt 0 -Is 0.0 -Id 2.0 -It cbr -Il 512 -If 0 -Ii 2 -Iv 32 -Pn cbr -Pi 1 -Pf 0 -Po 0 
s -t 1.100000000 -Hs 3 -Hd -2 -Ni 3 -Nx 350.00 -Ny 100.00 -Nz 100.00 -Ne -1.000000 -Nl AGT -Nw --- -Ma 0 -Md 0 -Ms 0 -Mt 0 -Is 3.0 -Id 1.0 -It cbr -Il 512 -If 2 -Ii 3 -Iv 32 -Pn cbr -Pi 1 -Pf 0 -Po 0 
r -t 1.100000000 -Hs 3 -Hd -2 -Ni 3 -Nx 350.00 -Ny 100.00 -Nz 100.00 -Ne -1.000000 -Nl RTR -Nw --- -Ma 0 -Md 0 -Ms 0 -Mt 0 -Is 3.0 -Id 1.0 -It cbr -Il 512 -If 2 -Ii 3 -Iv 32 -Pn cbr -Pi 1 -Pf 0 -Po 0 
s -t 1.100000000 -Hs 0 -Hd 1 -Ni 0 -Nx 0.00 -Ny 200.00 -Nz 100.00 -Ne -1.000000 -Nl RTR -Nw --- -Ma 0 -Md 0 -Ms 0 -Mt 0 -Is 0.0 -Id 2.0 -It cbr -Il 532 -If 0 -Ii 2 -Iv 30 -Pn cbr -Pi 1 -Pf 0 -Po 0 
s -t 1.100000000 -Hs 3 -Hd 1 -Ni 3 -Nx 350.00 -Ny 100.00 -Nz 100.00 -Ne -1.000000 -Nl RTR -Nw --- -Ma 0 -Md 0 -Ms 0 -Mt 0 -Is 3.0 -Id 1.0 -It cbr -Il 532 -If 2 -Ii 3 -Iv 30 -Pn cbr -Pi 1 -Pf 0 -Po 0 
s -t 1.100275000 -Hs 3 -Hd -2 -Ni 3 -Nx 350.00 -Ny 100.00 -Nz 100.00 -Ne -1.000000 -Nl MAC -Nw --- -Ma 14ee -Md 1 -Ms 3 -Mt 0 
r -t 1.100627333 -Hs 1 -Hd -2 -Ni 1 -Nx 350.00 -Ny 200.00 -Nz 100.00 -Ne -1.000000 -Nl MAC -Nw --- -Ma 14ee -Md 1 -Ms 3 -Mt 0 
s -t 1.100637333 -Hs 1 -Hd -2 -Ni 1 -Nx 350.00 -Ny 200.00 -Nz 100.00 -Ne -1.000000 -Nl MAC -Nw --- -Ma 13b4 -Md 3 -Ms 0 -Mt 0 
r -t 1.100941667 -Hs 3 -Hd -2 -Ni 3 -Nx 350.00 -Ny 100.00 -Nz 100.00 -Ne -1.000000 -Nl MAC -Nw --- -Ma 13b4 -Md 3 -Ms 0 -Mt 0 
s -t 1.100951667 -Hs 3 -Hd 1 -Ni 3 -Nx 350.00 -Ny 100.00 -Nz 100.00 -Ne -1.000000 -Nl MAC -Nw --- -Ma 13a -Md 1 -Ms 3 -Mt 800 -Is 3.0 -Id 1.0 -It cbr -Il 590 -If 2 -Ii 3 -Iv 30 -Pn cbr -Pi 1 -Pf 0 -Po 0 
r -t 1.105672000 -Hs 1 -Hd 1 -Ni 1 -Nx 350.00 -Ny 200.00 -Nz 100.00 -Ne -1.000000 -Nl MAC -Nw --- -Ma 13a -Md 1 -Ms 3 -Mt 800 -Is 3.0 -Id 1.0 -It cbr -Il 532 -If 2 -Ii 3 -Iv 30 -Pn cbr -Pi 1 -Pf 1 -Po 0 
s -t 1.105682000 -Hs 1 -Hd -2 -Ni 1 -Nx 350.00 -Ny 200.00 -Nz 100.00 -Ne -1.000000 -Nl MAC -Nw --- -Ma 0 -Md 3 -Ms 0 -Mt 0 
r -t 1.105697000 -Hs 1 -Hd 1 -Ni 1 -Nx 350.00 -Ny 200.00 -Nz 100.00 -Ne -1.000000 -Nl AGT -Nw --- -Ma 13a -Md 1 -Ms 3 -Mt 800 -Is 3.0 -Id 1.0 -It cbr -Il 532 -If 2 -Ii 3 -Iv 30 -Pn cbr -Pi 1 -Pf 1 -Po 0 
r -t 1.105986333 -Hs 3 -Hd -2 -Ni 3 -Nx 350.00 -Ny 100.00 -Nz 100.00 -Ne -1.000000 -Nl MAC -Nw --- -Ma 0 -Md 3 -Ms 0 -Mt 0 
s -t 1.106117167 -Hs 0 -Hd -2 -Ni 0 -Nx 0.00 -Ny 200.00 -Nz 100.00 -Ne -1.000000 -Nl MAC -Nw --- -Ma 14ee -Md 1 -Ms 0 -Mt 0 
r -t 1.106470333 -Hs 1 -Hd -2 -Ni 1 -Nx 350.00 -Ny 200.00 -Nz 100.00 -Ne -1.000000 -Nl MAC -Nw --- -Ma 14ee -Md 1 -Ms 0 -Mt 0 
s -t 1.106480333 -Hs 1 -Hd -2 -Ni 1 -Nx 350.00 -Ny 200.00 -Nz 100.00 -Ne -1.000000 -Nl MAC -Nw --- -Ma 13b4 -Md 0 -Ms 0 -Mt 0 
r -t 1.106785500 -Hs 0 -Hd -2 -Ni 0 -Nx 0.00 -Ny 200.00 -Nz 100.00 -Ne -1.000000 -Nl MAC -Nw --- -Ma 13b4 -Md 0 -Ms 0 -Mt 0 
s -t 1.106795500 -Hs 0 -Hd 1 -Ni 0 -Nx 0.00 -Ny 200.00 -Nz 100.00 -Ne -1.000000 -Nl MAC -Nw --- -Ma 13a -Md 1 -Ms 0 -Mt 800 -Is 0.0 -Id 2.0 -It cbr -Il 590 -If 0 -Ii 2 -Iv 30 -Pn cbr -Pi 1 -Pf 0 -Po 0 
r -t 1.111516667 -Hs 1 -Hd 1 -Ni 1 -Nx 350.00 -Ny 200.00 -Nz 100.00 -Ne -1.000000 -Nl MAC -Nw --- -Ma 13a -Md 1 -Ms 0 -Mt 800 -Is 0.0 -Id 2.0 -It cbr -Il 532 -If 0 -Ii 2 -Iv 30 -Pn cbr -Pi 1 -Pf 1 -Po 0 
s -t 1.111526667 -Hs 1 -Hd -2 -Ni 1 -Nx 350.00 -Ny 200.00 -Nz 100.00 -Ne -1.000000 -Nl MAC -Nw --- -Ma 0 -Md 0 -Ms 0 -Mt 0 
r -t 1.111541667 -Hs 1 -Hd 1 -Ni 1 -Nx 350.00 -Ny 200.00 -Nz 100.00 -Ne -1.000000 -Nl RTR -Nw --- -Ma 13a -Md 1 -Ms 0 -Mt 800 -Is 0.0 -Id 2.0 -It cbr -Il 532 -If 0 -Ii 2 -Iv 30 -Pn cbr -Pi 1 -Pf 1 -Po 0 
f -t 1.111541667 -Hs 1 -Hd 2 -Ni 1 -Nx 350.00 -Ny 200.00 -Nz 100.00 -Ne -1.000000 -Nl RTR -Nw --- -Ma 13a -Md 1 -Ms 0 -Mt 800 -Is 0.0 -Id 2.0 -It cbr -Il 532 -If 0 -Ii 2 -Iv 29 -Pn cbr -Pi 1 -Pf 1 -Po 0 
r -t 1.111831833 -Hs 0 -Hd -2 -Ni 0 -Nx 0.00 -Ny 200.00 -Nz 100.00 -Ne -1.000000 -Nl MAC -Nw --- -Ma 0 -Md 0 -Ms 0 -Mt 0 
s -t 1.112400667 -Hs 1 -Hd -2 -Ni 1 -Nx 350.00 -Ny 200.00 -Nz 100.00 -Ne -1.000000 -Nl MAC -Nw --- -Ma 14ee -Md 2 -Ms 1 -Mt 0 